 Entering Gaussian System, Link 0=/data/ch1ajm/g09/g09
 Input=/home/chp09bwh/Calculations/Macrocycles/M18C6_KC.com
 Output=/home/chp09bwh/Calculations/Macrocycles/M18C6_KC.log
 Initial command:
 /data/ch1ajm/g09/l1.exe /dump/chp09bwh/Gaussian/tmp/home/chp09bwh/Calculations/Macrocycles/M18C6_KC.17124/Gau-19645.inp -scrdir=/dump/chp09bwh/Gaussian/tmp/home/chp09bwh/Calculations/Macrocycles/M18C6_KC.17124/
 Entering Link 1 = /data/ch1ajm/g09/l1.exe PID=     19646.
  
 Copyright (c) 1988,1990,1992,1993,1995,1998,2003,2009, Gaussian, Inc.
                  All Rights Reserved.
  
 This is part of the Gaussian(R) 09 program.  It is based on
 the Gaussian(R) 03 system (copyright 2003, Gaussian, Inc.),
 the Gaussian(R) 98 system (copyright 1998, Gaussian, Inc.),
 the Gaussian(R) 94 system (copyright 1995, Gaussian, Inc.),
 the Gaussian 92(TM) system (copyright 1992, Gaussian, Inc.),
 the Gaussian 90(TM) system (copyright 1990, Gaussian, Inc.),
 the Gaussian 88(TM) system (copyright 1988, Gaussian, Inc.),
 the Gaussian 86(TM) system (copyright 1986, Carnegie Mellon
 University), and the Gaussian 82(TM) system (copyright 1983,
 Carnegie Mellon University). Gaussian is a federally registered
 trademark of Gaussian, Inc.
  
 This software contains proprietary and confidential information,
 including trade secrets, belonging to Gaussian, Inc.
  
 This software is provided under written license and may be
 used, copied, transmitted, or stored only in accord with that
 written license.
  
 The following legend is applicable only to US Government
 contracts under FAR:
  
                    RESTRICTED RIGHTS LEGEND
  
 Use, reproduction and disclosure by the US Government is
 subject to restrictions as set forth in subparagraphs (a)
 and (c) of the Commercial Computer Software - Restricted
 Rights clause in FAR 52.227-19.
  
 Gaussian, Inc.
 340 Quinnipiac St., Bldg. 40, Wallingford CT 06492
  
  
 ---------------------------------------------------------------
 Warning -- This program may not be used in any manner that
 competes with the business of Gaussian, Inc. or will provide
 assistance to any competitor of Gaussian, Inc.  The licensee
 of this program is prohibited from giving any competitor of
 Gaussian, Inc. access to this program.  By using this program,
 the user acknowledges that Gaussian, Inc. is engaged in the
 business of creating and licensing software in the field of
 computational chemistry and represents and warrants to the
 licensee that it is not a competitor of Gaussian, Inc. and that
 it will not use this program in any manner prohibited above.
 ---------------------------------------------------------------
  

 Cite this work as:
 Gaussian 09, Revision A.02,
 M. J. Frisch, G. W. Trucks, H. B. Schlegel, G. E. Scuseria, 
 M. A. Robb, J. R. Cheeseman, G. Scalmani, V. Barone, B. Mennucci, 
 G. A. Petersson, H. Nakatsuji, M. Caricato, X. Li, H. P. Hratchian, 
 A. F. Izmaylov, J. Bloino, G. Zheng, J. L. Sonnenberg, M. Hada, 
 M. Ehara, K. Toyota, R. Fukuda, J. Hasegawa, M. Ishida, T. Nakajima, 
 Y. Honda, O. Kitao, H. Nakai, T. Vreven, J. A. Montgomery, Jr., 
 J. E. Peralta, F. Ogliaro, M. Bearpark, J. J. Heyd, E. Brothers, 
 K. N. Kudin, V. N. Staroverov, R. Kobayashi, J. Normand, 
 K. Raghavachari, A. Rendell, J. C. Burant, S. S. Iyengar, J. Tomasi, 
 M. Cossi, N. Rega, J. M. Millam, M. Klene, J. E. Knox, J. B. Cross, 
 V. Bakken, C. Adamo, J. Jaramillo, R. Gomperts, R. E. Stratmann, 
 O. Yazyev, A. J. Austin, R. Cammi, C. Pomelli, J. W. Ochterski, 
 R. L. Martin, K. Morokuma, V. G. Zakrzewski, G. A. Voth, 
 P. Salvador, J. J. Dannenberg, S. Dapprich, A. D. Daniels, 
 O. Farkas, J. B. Foresman, J. V. Ortiz, J. Cioslowski, 
 and D. J. Fox, Gaussian, Inc., Wallingford CT, 2009.
 
 ******************************************
 Gaussian 09:  AM64L-G09RevA.02 11-Jun-2009
                 1-Apr-2010 
 ******************************************
 %nprocshared=4
 Will use up to    4 processors via shared memory.
 %mem=12GB
 %chk=/home/chp09bwh/Calculations/Macrocycles/M18C6_KC.chk
 --------------------------------------------
 # b3lyp/sdd geom=connectivity counterpoise=2
 --------------------------------------------
 1/38=1,57=2,62=2/1;
 2/12=2,17=6,18=5,40=1/2;
 1/38=1,53=5172,62=2/22;
 3/5=17,6=7,11=2,16=1,25=1,30=1,74=-5/1,2,3;
 4//1;
 5/5=2,38=5/2;
 6/7=2,8=2,9=2,10=2,28=1/1;
 1/53=4052,62=2,63=1/22;
 3/5=7,6=11,11=2,16=1,25=1,30=1,74=-5,82=7/1,2,3;
 4//1;
 5/5=2,38=5/2;
 6/7=2,8=2,9=2,10=2,28=1/1;
 1/53=3042,62=2,63=2/22;
 3/5=7,6=11,11=2,16=1,25=1,30=1,74=-5,82=7/1,2,3;
 4//1;
 5/5=2,38=5/2;
 6/7=2,8=2,9=2,10=2,28=1/1;
 1/53=2032,62=2,63=3/22;
 3/5=7,6=11,11=2,16=1,25=1,30=1,74=-5,82=7/1,2,3;
 4//1;
 5/5=2,38=5/2;
 6/7=2,8=2,9=2,10=2,28=1/1;
 1/53=1022,62=2,63=4/22;
 3/5=7,6=11,11=2,16=1,25=1,30=1,74=-5,82=7/1,2,3;
 4//1;
 5/5=2,38=5/2;
 6/7=2,8=2,9=2,10=2,28=1/1;
 1/53=5014,62=2,63=5/22;
 99/5=1,9=1/99;
 --------------------------------------------------
 Crown Ether [18]crown-6 with K+ guest Counterpoise
 --------------------------------------------------
 Symbolic Z-matrix:
 Charge =  1 Multiplicity = 1 in supermolecule
 Charge =  0 Multiplicity = 1 in fragment  1.
 Charge =  1 Multiplicity = 1 in fragment  2.
 C(Fragment=1)        -3.61415   0.67684   0.3858 
 H(Fragment=1)        -3.56941   0.47981   1.46825 
 H(Fragment=1)        -4.53182   1.24228   0.16165 
 C(Fragment=1)        -3.62217  -0.6324   -0.38591 
 H(Fragment=1)        -4.54724  -1.18602  -0.16268 
 H(Fragment=1)        -3.57385  -0.43591  -1.46831 
 O(Fragment=1)        -2.45842  -1.41373   0.03487 
 C(Fragment=1)        -2.35315  -2.72638  -0.60328 
 H(Fragment=1)        -2.17041  -2.6059   -1.68256 
 H(Fragment=1)        -3.28695  -3.29195  -0.46037 
 C(Fragment=1)        -1.20736  -3.48082   0.0497 
 H(Fragment=1)        -1.35991  -3.52885   1.13894 
 H(Fragment=1)        -1.16593  -4.50482  -0.35302 
 O(Fragment=1)         0.04393  -2.77936  -0.24361 
 C(Fragment=1)         1.21991  -3.42123   0.34685 
 H(Fragment=1)         1.33597  -4.43675  -0.06276 
 H(Fragment=1)         1.10286  -3.48397   1.43952 
 C(Fragment=1)         2.44678  -2.59246   0.00481 
 H(Fragment=1)         3.34952  -3.12419   0.34191 
 H(Fragment=1)         2.5063   -2.43861  -1.08322 
 O(Fragment=1)         2.33769  -1.31002   0.70572 
 C(Fragment=1)         3.52474  -0.45355   0.63673 
 H(Fragment=1)         3.48161   0.17044   1.53563 
 H(Fragment=1)         4.44076  -1.06298   0.68244 
 C(Fragment=1)         3.53251   0.41074  -0.63167 
 H(Fragment=1)         4.45592   1.00918  -0.67356 
 H(Fragment=1)         3.48579  -0.21263  -1.53081 
 O(Fragment=1)         2.35598   1.28125  -0.70536 
 C(Fragment=1)         2.4792    2.56399  -0.00729 
 H(Fragment=1)         2.53754   2.41195   1.08107 
 H(Fragment=1)         3.38753   3.08508  -0.34596 
 C(Fragment=1)         1.26135   3.40538  -0.35068 
 H(Fragment=1)         1.38898   4.42061   0.0562 
 H(Fragment=1)         1.14433   3.46663  -1.44344 
 O(Fragment=1)         0.07862   2.77821   0.24205 
 C(Fragment=1)        -1.16437   3.49512  -0.04911 
 H(Fragment=1)        -1.31785   3.54574  -1.13809 
 H(Fragment=1)        -1.10986   4.51825   0.35424 
 C(Fragment=1)        -2.31843   2.75421   0.60481 
 H(Fragment=1)        -3.24549   3.33107   0.46327 
 H(Fragment=1)        -2.13599   2.63087   1.68382 
 O(Fragment=1)        -2.44014   1.44326  -0.03395 
 K(Fragment=2)        -0.05542   0.00038  -0.00024 
 
                          Input orientation:                          
 ---------------------------------------------------------------------
 Center     Atomic      Atomic             Coordinates (Angstroms)
 Number     Number       Type             X           Y           Z
 ---------------------------------------------------------------------
      1          6           0       -3.614152    0.676840    0.385795
      2          1           0       -3.569408    0.479808    1.468251
      3          1           0       -4.531824    1.242275    0.161647
      4          6           0       -3.622172   -0.632401   -0.385910
      5          1           0       -4.547237   -1.186024   -0.162683
      6          1           0       -3.573853   -0.435905   -1.468312
      7          8           0       -2.458416   -1.413726    0.034870
      8          6           0       -2.353150   -2.726382   -0.603277
      9          1           0       -2.170406   -2.605900   -1.682563
     10          1           0       -3.286952   -3.291948   -0.460367
     11          6           0       -1.207358   -3.480819    0.049701
     12          1           0       -1.359907   -3.528849    1.138937
     13          1           0       -1.165925   -4.504816   -0.353017
     14          8           0        0.043932   -2.779355   -0.243608
     15          6           0        1.219909   -3.421232    0.346850
     16          1           0        1.335968   -4.436748   -0.062759
     17          1           0        1.102865   -3.483971    1.439522
     18          6           0        2.446779   -2.592461    0.004810
     19          1           0        3.349519   -3.124186    0.341913
     20          1           0        2.506300   -2.438610   -1.083224
     21          8           0        2.337691   -1.310020    0.705724
     22          6           0        3.524743   -0.453548    0.636726
     23          1           0        3.481613    0.170436    1.535625
     24          1           0        4.440761   -1.062979    0.682437
     25          6           0        3.532506    0.410741   -0.631668
     26          1           0        4.455920    1.009176   -0.673563
     27          1           0        3.485787   -0.212634   -1.530805
     28          8           0        2.355981    1.281252   -0.705355
     29          6           0        2.479198    2.563994   -0.007286
     30          1           0        2.537543    2.411947    1.081067
     31          1           0        3.387529    3.085083   -0.345956
     32          6           0        1.261353    3.405378   -0.350684
     33          1           0        1.388978    4.420608    0.056201
     34          1           0        1.144334    3.466628   -1.443444
     35          8           0        0.078619    2.778206    0.242051
     36          6           0       -1.164373    3.495119   -0.049106
     37          1           0       -1.317848    3.545744   -1.138092
     38          1           0       -1.109855    4.518255    0.354236
     39          6           0       -2.318425    2.754205    0.604810
     40          1           0       -3.245488    3.331069    0.463268
     41          1           0       -2.135987    2.630870    1.683823
     42          8           0       -2.440138    1.443255   -0.033948
     43         19           0       -0.055418    0.000377   -0.000241
 ---------------------------------------------------------------------
                    Distance matrix (angstroms):
                    1          2          3          4          5
     1  C    0.000000
     2  H    1.101152   0.000000
     3  H    1.100945   1.792990   0.000000
     4  C    1.519771   2.162800   2.154459   0.000000
     5  H    2.154469   2.528061   2.449911   1.100942   0.000000
     6  H    2.162762   3.076029   2.527996   1.101154   1.792992
     7  O    2.414403   2.621899   3.371859   1.463507   2.110462
     8  C    3.761690   4.006266   4.591510   2.458134   2.716771
     9  H    4.139914   4.626708   4.877075   2.771936   3.158387
    10  H    4.071158   4.245644   4.742972   2.681624   2.472216
    11  C    4.815781   4.824741   5.776870   3.759597   4.057830
    12  H    4.830804   4.589082   5.812037   3.978996   4.164387
    13  H    5.778340   5.825824   6.680061   4.585829   4.741717
    14  O    5.071786   5.158375   6.105349   4.250880   4.860461
    15  C    6.337496   6.277994   7.407093   5.635625   6.206106
    16  H    7.131176   7.111907   8.169005   6.257846   6.722298
    17  H    6.377534   6.127194   7.464589   5.812885   6.306447
    18  C    6.896982   6.911946   7.964339   6.389575   7.135992
    19  H    7.933627   7.882193   9.011884   7.439301   8.146769
    20  H    7.023103   7.207039   8.039515   6.427037   7.222794
    21  O    6.282866   6.219224   7.348501   6.096786   6.940586
    22  C    7.232190   7.203441   8.246805   7.221923   8.144473
    23  H    7.206139   7.058126   8.200721   7.402743   8.317852
    24  H    8.246004   8.195151   9.278615   8.144793   9.028481
    25  C    7.223625   7.406187   8.145810   7.234498   8.249355
    26  H    8.146088   8.323070   9.029477   8.248217   9.280988
    27  H    7.407675   7.697375   8.322454   7.211801   8.206627
    28  O    6.099050   6.362162   6.942267   6.285096   7.350943
    29  C    6.390992   6.565567   7.136519   6.898334   7.966026
    30  H    6.429413   6.417003   7.224224   7.025821   8.042787
    31  H    7.440338   7.647076   8.146763   7.934557   9.013127
    32  C    5.635412   5.933274   6.205030   6.336696   7.406486
    33  H    6.257455   6.489174   6.720775   7.130216   8.168285
    34  H    5.811387   6.294317   6.304192   6.374951   7.462004
    35  O    4.251230   4.482667   4.860219   5.071728   6.105528
    36  C    3.759422   4.144715   4.057025   4.815666   5.776657
    37  H    3.978172   4.611129   4.162323   4.830381   5.811196
    38  H    4.585735   4.857930   4.741203   5.778305   6.679940
    39  C    2.458113   2.735575   2.716884   3.761699   4.591520
    40  H    2.680829   3.040494   2.471578   4.070883   4.742414
    41  H    2.772739   2.593884   3.159945   4.140227   4.877744
    42  O    1.463518   2.111891   2.110403   2.414421   3.371876
    43  K    3.642968   3.838548   4.648304   3.642922   4.648696
                    6          7          8          9         10
     6  H    0.000000
     7  O    2.111845   0.000000
     8  C    2.735815   1.463345   0.000000
     9  H    2.593154   2.110404   1.101258   0.000000
    10  H    3.042244   2.111741   1.101033   1.791954   0.000000
    11  C    4.144414   2.416245   1.519340   2.166491   2.149547
    12  H    4.611465   2.626677   2.160045   3.077272   2.515432
    13  H    4.857781   3.372807   2.152896   2.526372   2.445675
    14  O    4.481074   2.864304   2.424494   2.646502   3.377059
    15  C    5.931875   4.202081   3.761955   4.034541   4.580405
    16  H    6.487578   4.852375   4.102085   4.274392   4.779126
    17  H    6.294275   4.352204   4.085463   4.607898   4.787165
    18  C    6.562685   5.044924   4.840147   4.915873   5.794941
    19  H    7.644400   6.062348   5.794141   5.902262   6.686893
    20  H    6.413063   5.191236   4.891566   4.717920   5.888795
    21  O    6.358999   4.843908   5.071839   5.263664   6.076546
    22  C    7.404158   6.089529   6.422850   6.515093   7.460517
    23  H    7.692262   6.328173   6.856451   7.071782   7.860379
    24  H    8.321838   6.938372   7.111765   7.188975   8.123537
    25  C    7.205354   6.297944   6.669580   6.536644   7.761717
    26  H    8.197386   7.360732   7.766773   7.615448   8.859864
    27  H    7.063446   6.263187   6.424362   6.143555   7.516516
    28  O    6.220423   5.566800   6.184453   6.045913   7.267522
    29  C    6.911832   6.340668   7.189915   7.152145   8.230785
    30  H    7.208242   6.378864   7.290975   7.414932   8.296697
    31  H    7.881490   7.386432   8.172805   8.066254   9.231918
    32  C    6.275649   6.099926   7.122283   7.048853   8.096498
    33  H    7.109117   6.988730   8.094313   8.066246   9.034085
    34  H    6.123044   6.243643   7.161819   6.922447   8.141320
    35  O    5.157170   4.904260   6.076888   6.144172   6.976190
    36  C    4.824178   5.077239   6.358252   6.395523   7.123114
    37  H    4.588260   5.222363   6.379455   6.234262   7.147777
    38  H    5.825519   6.091717   7.412650   7.485112   8.148779
    39  C    4.006337   4.209047   5.612265   5.829641   6.215192
    40  H    4.246047   4.828673   6.215022   6.403748   6.687240
    41  H    4.626934   4.379699   5.829077   6.225552   6.403284
    42  O    2.621822   2.857868   4.209225   4.380222   4.829190
    43  K    3.837311   2.788426   3.616413   3.754472   4.636155
                   11         12         13         14         15
    11  C    0.000000
    12  H    1.100915   0.000000
    13  H    1.101121   1.793340   0.000000
    14  O    1.464175   2.108064   2.110199   0.000000
    15  C    2.446114   2.700821   2.712226   1.464093   0.000000
    16  H    2.719367   3.088057   2.519594   2.109269   1.101146
    17  H    2.696061   2.481453   3.066387   2.109680   1.100712
    18  C    3.760839   4.080922   4.103264   2.422873   1.519560
    19  H    4.580142   4.793505   4.772662   3.374707   2.150232
    20  H    4.020071   4.590662   4.276406   2.623798   2.159967
    21  O    4.208338   4.333948   4.858290   2.884702   2.415666
    22  C    5.648163   5.793919   6.276522   4.277898   3.768745
    23  H    6.125854   6.105930   6.857446   4.866681   4.407785
    24  H    6.176371   6.319546   6.659830   4.809949   4.005978
    25  C    6.170479   6.526187   6.805557   4.743148   4.581443
    26  H    7.263325   7.596227   7.881117   5.831249   5.580459
    27  H    5.933350   6.450237   6.438046   4.482332   4.353722
    28  O    5.995399   6.351874   6.782813   4.695456   4.950874
    29  C    7.080516   7.292139   7.960812   5.876882   6.126512
    30  H    7.057811   7.105387   7.975831   5.909524   6.025049
    31  H    8.023752   8.275696   8.851020   6.751426   6.892800
    32  C    7.326292   7.561315   8.274228   6.304324   6.862279
    33  H    8.317064   8.480717   9.292910   7.330655   7.849046
    34  H    7.485116   7.866169   8.370797   6.454672   7.117126
    35  O    6.392662   6.530904   7.412517   5.578849   6.304487
    36  C    6.976770   7.126416   8.005706   6.392719   7.326493
    37  H    7.127107   7.432126   8.090176   6.531571   7.562011
    38  H    8.005463   8.089139   9.050920   7.412405   8.274256
    39  C    6.357526   6.378151   7.412090   6.076251   7.121964
    40  H    7.122277   7.146357   8.148128   6.975474   8.096104
    41  H    6.394173   6.232282   7.483833   6.143091   7.048225
    42  O    5.076736   5.221530   6.091385   4.903570   6.099523
    43  K    3.667177   3.931266   4.653433   2.792133   3.668016
                   16         17         18         19         20
    16  H    0.000000
    17  H    1.794149   0.000000
    18  C    2.154034   2.158540   0.000000
    19  H    2.437410   2.526192   1.100595   0.000000
    20  H    2.530530   3.070286   1.100468   1.792219   0.000000
    21  O    3.372009   2.605632   1.465550   2.108875   2.121905
    22  C    4.598467   3.961494   2.477150   2.692569   2.817077
    23  H    5.327736   4.361464   3.323835   3.506698   3.823183
    24  H    4.645145   4.192366   2.602779   2.356977   2.958388
    25  C    5.352251   5.036047   3.256245   3.671111   3.061993
    26  H    6.305971   5.991367   4.179549   4.397726   3.981968
    27  H    4.961856   5.020240   3.016824   3.464502   2.472790
    28  O    5.843704   5.373839   3.939319   4.635922   3.742025
    29  C    7.093690   6.369099   5.156571   5.764962   5.117072
    30  H    7.046754   6.078539   5.119635   5.643972   5.311594
    31  H    7.801733   7.180536   5.765636   6.247370   5.641925
    32  C    7.847765   7.119908   6.124188   6.890235   6.019859
    33  H    8.858313   8.029807   7.092582   7.800594   7.042412
    34  H    8.025358   7.524895   6.364461   7.175595   6.070959
    35  O    7.330034   6.457389   5.874396   6.748851   5.904673
    36  C    8.316634   7.487595   7.078274   8.021429   7.053537
    37  H    8.480522   7.868979   7.290830   8.274219   7.102085
    38  H    9.292363   8.373147   7.958268   8.848337   7.971251
    39  C    8.093827   7.163575   7.187072   8.170079   7.286478
    40  H    9.033572   8.142851   8.228019   9.229256   8.292400
    41  H    8.065745   6.923953   7.148707   8.063012   7.409926
    42  O    6.988150   6.245121   6.338017   7.383963   6.374724
    43  K    4.650585   3.944010   3.603307   4.633957   3.699177
                   21         22         23         24         25
    21  O    0.000000
    22  C    1.465400   0.000000
    23  H    2.046715   1.095096   0.000000
    24  H    2.117658   1.101174   1.780227   0.000000
    25  C    2.485401   1.534887   2.181168   2.173396   0.000000
    26  H    3.430451   2.173364   2.556026   2.476447   1.101169
    27  H    2.743072   2.181226   3.090267   2.556072   1.095092
    28  O    2.950622   2.485300   2.742800   3.430407   1.465411
    29  C    3.941623   3.257833   3.019028   4.180715   2.477057
    30  H    3.746180   3.063179   2.474321   3.981991   2.815713
    31  H    4.639517   3.675106   3.470499   4.401512   2.693465
    32  C    4.950705   4.581400   4.353454   5.580519   3.768944
    33  H    5.844830   5.353120   4.963041   6.306764   4.598577
    34  H    5.372094   5.035994   5.020220   5.991923   3.962422
    35  O    4.693825   4.740862   4.478188   5.828973   4.277571
    36  C    5.993628   6.168480   5.928750   7.261470   5.649198
    37  H    6.351462   6.526485   6.447968   7.597120   5.797469
    38  H    6.780701   6.802803   6.432790   7.878276   6.276559
    39  C    6.181224   6.665832   6.417376   7.762958   6.422935
    40  H    7.264322   7.758185   7.509556   8.856304   7.461126
    41  H    6.041613   6.530996   6.134585   7.609265   6.513239
    42  O    5.563748   6.295035   6.257057   7.358070   6.090635
    43  K    2.818244   3.664605   3.859844   4.670375   3.666101
                   26         27         28         29         30
    26  H    0.000000
    27  H    1.780124   0.000000
    28  O    2.117730   2.046833   0.000000
    29  C    2.601694   3.323251   1.465575   0.000000
    30  H    2.954093   3.822233   2.121966   1.100470   0.000000
    31  H    2.357578   3.505490   2.108807   1.100589   1.792201
    32  C    4.006407   4.408038   2.415763   1.519538   2.159972
    33  H    4.645057   5.327488   3.372035   2.153979   2.530666
    34  H    4.195043   4.361995   2.605520   2.158509   3.070267
    35  O    4.809218   4.867950   2.885278   2.422981   2.623814
    36  C    6.177180   6.129180   4.210079   3.760898   4.019295
    37  H    6.323477   6.111836   4.337304   4.081680   4.590665
    38  H    6.659419   6.859637   4.859315   4.102577   4.274147
    39  C    7.111337   6.859436   5.073085   4.840251   4.891256
    40  H    8.123746   7.864110   6.078148   5.794985   5.888116
    41  H    7.186125   7.072743   5.263784   4.915715   4.717322
    42  O    6.939247   6.332388   4.845595   5.045457   5.192199
    43  K    4.671532   3.863694   2.820048   3.605060   3.702478
                   31         32         33         34         35
    31  H    0.000000
    32  C    2.150171   0.000000
    33  H    2.437122   1.101152   0.000000
    34  H    2.526258   1.100713   1.794119   0.000000
    35  O    3.374731   1.464083   2.109281   2.109637   0.000000
    36  C    4.579963   2.446048   2.717944   2.697243   1.464160
    37  H    4.793773   2.700369   3.085228   2.482305   2.108087
    38  H    4.771867   2.712570   2.518437   3.069029   2.110172
    39  C    5.794079   3.761889   4.101549   4.085779   2.424457
    40  H    6.686723   4.580355   4.778187   4.787950   3.377023
    41  H    5.902164   4.034972   4.275242   4.608557   2.646676
    42  O    6.062561   4.201343   4.851277   4.350765   2.863984
    43  K    4.635603   3.667523   4.650581   3.941717   2.791595
                   36         37         38         39         40
    36  C    0.000000
    37  H    1.100912   0.000000
    38  H    1.101120   1.793344   0.000000
    39  C    1.519341   2.159953   2.152975   0.000000
    40  H    2.149530   2.515201   2.445859   1.101023   0.000000
    41  H    2.166565   3.077263   2.526454   1.101256   1.791933
    42  O    2.416185   2.626619   3.372827   1.463358   2.111789
    43  K    3.666796   3.931674   4.652818   3.615364   4.635180
                   41         42         43
    41  H    0.000000
    42  O    2.110373   0.000000
    43  K    3.752910   2.787458   0.000000
 Stoichiometry    C12H24KO6(1+)
 Framework group  C1[X(C12H24KO6)]
 Deg. of freedom   123
 Full point group                 C1      NOp   1
 Largest Abelian subgroup         C1      NOp   1
 Largest concise Abelian subgroup C1      NOp   1
                         Standard orientation:                         
 ---------------------------------------------------------------------
 Center     Atomic      Atomic             Coordinates (Angstroms)
 Number     Number       Type             X           Y           Z
 ---------------------------------------------------------------------
      1          6           0       -3.614152    0.676840    0.385795
      2          1           0       -3.569408    0.479808    1.468251
      3          1           0       -4.531824    1.242275    0.161647
      4          6           0       -3.622172   -0.632401   -0.385910
      5          1           0       -4.547237   -1.186024   -0.162683
      6          1           0       -3.573853   -0.435905   -1.468312
      7          8           0       -2.458416   -1.413726    0.034870
      8          6           0       -2.353150   -2.726382   -0.603277
      9          1           0       -2.170406   -2.605900   -1.682563
     10          1           0       -3.286952   -3.291948   -0.460367
     11          6           0       -1.207358   -3.480819    0.049701
     12          1           0       -1.359907   -3.528849    1.138937
     13          1           0       -1.165925   -4.504816   -0.353017
     14          8           0        0.043932   -2.779355   -0.243608
     15          6           0        1.219909   -3.421232    0.346850
     16          1           0        1.335968   -4.436748   -0.062759
     17          1           0        1.102865   -3.483971    1.439522
     18          6           0        2.446779   -2.592461    0.004810
     19          1           0        3.349519   -3.124186    0.341913
     20          1           0        2.506300   -2.438610   -1.083224
     21          8           0        2.337691   -1.310020    0.705724
     22          6           0        3.524743   -0.453548    0.636726
     23          1           0        3.481613    0.170436    1.535625
     24          1           0        4.440761   -1.062979    0.682437
     25          6           0        3.532506    0.410741   -0.631668
     26          1           0        4.455920    1.009176   -0.673563
     27          1           0        3.485787   -0.212634   -1.530805
     28          8           0        2.355981    1.281252   -0.705355
     29          6           0        2.479198    2.563994   -0.007286
     30          1           0        2.537543    2.411947    1.081067
     31          1           0        3.387529    3.085083   -0.345956
     32          6           0        1.261353    3.405378   -0.350684
     33          1           0        1.388978    4.420608    0.056201
     34          1           0        1.144334    3.466628   -1.443444
     35          8           0        0.078619    2.778206    0.242051
     36          6           0       -1.164373    3.495119   -0.049106
     37          1           0       -1.317848    3.545744   -1.138092
     38          1           0       -1.109855    4.518255    0.354236
     39          6           0       -2.318425    2.754205    0.604810
     40          1           0       -3.245488    3.331069    0.463268
     41          1           0       -2.135987    2.630870    1.683823
     42          8           0       -2.440138    1.443255   -0.033948
     43         19           0       -0.055418    0.000377   -0.000241
 ---------------------------------------------------------------------
 Rotational constants (GHZ):      0.3231727      0.3143007      0.1665494
 Standard basis: SDD (6D, 10F)
 There are   245 symmetry adapted basis functions of A   symmetry.
 Integral buffers will be    131072 words long.
 Raffenetti 2 integral format.
 Two-electron integral symmetry is turned on.
   245 basis functions,   553 primitive gaussians,   245 cartesian basis functions
    76 alpha electrons       76 beta electrons
       nuclear repulsion energy      1648.8273472452 Hartrees.
 NAtoms=   43 NActive=   43 NUniq=   43 SFac= 7.50D-01 NAtFMM=   80 NAOKFM=F Big=F
 One-electron integrals computed using PRISM.
   1 Symmetry operations used in ECPInt.
 ECPInt:  NShTT=   13695 NPrTT=   65797 LenC2=   12202 LenP2D=   36913.
 LDataN:  DoStor=T MaxTD1= 5 Len=  102
 NBasis=   245 RedAO= T  NBF=   245
 NBsUse=   245 1.00D-06 NBFU=   245
 Harris functional with IExCor=  402 diagonalized for initial guess.
 ExpMin= 1.65D-02 ExpMax= 7.82D+03 ExpMxC= 1.18D+03 IAcc=3 IRadAn=         0 AccDes= 0.00D+00
 HarFok:  IExCor=  402 AccDes= 0.00D+00 IRadAn=         0 IDoV= 1
 ScaDFX=  1.000000  1.000000  1.000000  1.000000
 FoFCou: FMM=F IPFlag=           0 FMFlag=      100000 FMFlg1=           0
         NFxFlg=           0 DoJE=T BraDBF=F KetDBF=T FulRan=T
         Omega=  0.000000  0.000000  1.000000  0.000000  0.000000 ICntrl=     500 IOpCl=  0
         NMat0=    1 NMatS0=    1 NMatT0=    0 NMatD0=    1 NMtDS0=    0 NMtDT0=    0
         I1Cent=           4 NGrid=           0.
 Petite list used in FoFCou.
 Initial guess orbital symmetries:
       Occupied  (A) (A) (A) (A) (A) (A) (A) (A) (A) (A) (A) (A)
                 (A) (A) (A) (A) (A) (A) (A) (A) (A) (A) (A) (A)
                 (A) (A) (A) (A) (A) (A) (A) (A) (A) (A) (A) (A)
                 (A) (A) (A) (A) (A) (A) (A) (A) (A) (A) (A) (A)
                 (A) (A) (A) (A) (A) (A) (A) (A) (A) (A) (A) (A)
                 (A) (A) (A) (A) (A) (A) (A) (A) (A) (A) (A) (A)
                 (A) (A) (A) (A)
       Virtual   (A) (A) (A) (A) (A) (A) (A) (A) (A) (A) (A) (A)
                 (A) (A) (A) (A) (A) (A) (A) (A) (A) (A) (A) (A)
                 (A) (A) (A) (A) (A) (A) (A) (A) (A) (A) (A) (A)
                 (A) (A) (A) (A) (A) (A) (A) (A) (A) (A) (A) (A)
                 (A) (A) (A) (A) (A) (A) (A) (A) (A) (A) (A) (A)
                 (A) (A) (A) (A) (A) (A) (A) (A) (A) (A) (A) (A)
                 (A) (A) (A) (A) (A) (A) (A) (A) (A) (A) (A) (A)
                 (A) (A) (A) (A) (A) (A) (A) (A) (A) (A) (A) (A)
                 (A) (A) (A) (A) (A) (A) (A) (A) (A) (A) (A) (A)
                 (A) (A) (A) (A) (A) (A) (A) (A) (A) (A) (A) (A)
                 (A) (A) (A) (A) (A) (A) (A) (A) (A) (A) (A) (A)
                 (A) (A) (A) (A) (A) (A) (A) (A) (A) (A) (A) (A)
                 (A) (A) (A) (A) (A) (A) (A) (A) (A) (A) (A) (A)
                 (A) (A) (A) (A) (A) (A) (A) (A) (A) (A) (A) (A)
                 (A)
 The electronic state of the initial guess is 1-A.
 Requested convergence on RMS density matrix=1.00D-08 within 128 cycles.
 Requested convergence on MAX density matrix=1.00D-06.
 Requested convergence on             energy=1.00D-06.
 No special actions if energy rises.
 Keep R1 ints in memory in canonical form, NReq=462103699.
 SCF Done:  E(RB3LYP) =  -951.133294047     A.U. after   11 cycles
             Convg  =    0.6693D-08             -V/T =  2.0243

 **********************************************************************

            Population analysis using the SCF density.

 **********************************************************************

 Orbital symmetries:
       Occupied  (A) (A) (A) (A) (A) (A) (A) (A) (A) (A) (A) (A)
                 (A) (A) (A) (A) (A) (A) (A) (A) (A) (A) (A) (A)
                 (A) (A) (A) (A) (A) (A) (A) (A) (A) (A) (A) (A)
                 (A) (A) (A) (A) (A) (A) (A) (A) (A) (A) (A) (A)
                 (A) (A) (A) (A) (A) (A) (A) (A) (A) (A) (A) (A)
                 (A) (A) (A) (A) (A) (A) (A) (A) (A) (A) (A) (A)
                 (A) (A) (A) (A)
       Virtual   (A) (A) (A) (A) (A) (A) (A) (A) (A) (A) (A) (A)
                 (A) (A) (A) (A) (A) (A) (A) (A) (A) (A) (A) (A)
                 (A) (A) (A) (A) (A) (A) (A) (A) (A) (A) (A) (A)
                 (A) (A) (A) (A) (A) (A) (A) (A) (A) (A) (A) (A)
                 (A) (A) (A) (A) (A) (A) (A) (A) (A) (A) (A) (A)
                 (A) (A) (A) (A) (A) (A) (A) (A) (A) (A) (A) (A)
                 (A) (A) (A) (A) (A) (A) (A) (A) (A) (A) (A) (A)
                 (A) (A) (A) (A) (A) (A) (A) (A) (A) (A) (A) (A)
                 (A) (A) (A) (A) (A) (A) (A) (A) (A) (A) (A) (A)
                 (A) (A) (A) (A) (A) (A) (A) (A) (A) (A) (A) (A)
                 (A) (A) (A) (A) (A) (A) (A) (A) (A) (A) (A) (A)
                 (A) (A) (A) (A) (A) (A) (A) (A) (A) (A) (A) (A)
                 (A) (A) (A) (A) (A) (A) (A) (A) (A) (A) (A) (A)
                 (A) (A) (A) (A) (A) (A) (A) (A) (A) (A) (A) (A)
                 (A)
 The electronic state is 1-A.
 Alpha  occ. eigenvalues --  -19.25634 -19.25633 -19.25589 -19.25586 -19.25574
 Alpha  occ. eigenvalues --  -19.25571 -10.35256 -10.35255 -10.35165 -10.35145
 Alpha  occ. eigenvalues --  -10.35109 -10.35106 -10.35079 -10.35057 -10.35039
 Alpha  occ. eigenvalues --  -10.35036 -10.35014 -10.35012  -1.43484  -1.15123
 Alpha  occ. eigenvalues --   -1.14513  -1.14499  -1.13006  -1.12993  -1.12120
 Alpha  occ. eigenvalues --   -0.91101  -0.89129  -0.88832  -0.84536  -0.84193
 Alpha  occ. eigenvalues --   -0.81274  -0.78321  -0.77793  -0.77768  -0.75276
 Alpha  occ. eigenvalues --   -0.73207  -0.73020  -0.71703  -0.71429  -0.70284
 Alpha  occ. eigenvalues --   -0.62939  -0.62540  -0.62316  -0.61871  -0.61260
 Alpha  occ. eigenvalues --   -0.60394  -0.59598  -0.59425  -0.57861  -0.57565
 Alpha  occ. eigenvalues --   -0.56604  -0.55241  -0.54848  -0.54767  -0.54125
 Alpha  occ. eigenvalues --   -0.53634  -0.52356  -0.51301  -0.51199  -0.49828
 Alpha  occ. eigenvalues --   -0.49393  -0.49286  -0.48816  -0.46477  -0.44294
 Alpha  occ. eigenvalues --   -0.44188  -0.43775  -0.43249  -0.43189  -0.42655
 Alpha  occ. eigenvalues --   -0.39205  -0.38188  -0.37737  -0.37527  -0.37018
 Alpha  occ. eigenvalues --   -0.36513
 Alpha virt. eigenvalues --   -0.09577  -0.08436  -0.07118  -0.06854  -0.05124
 Alpha virt. eigenvalues --   -0.02789  -0.02561  -0.01326  -0.00168  -0.00047
 Alpha virt. eigenvalues --    0.00154   0.00592   0.01081   0.01139   0.02314
 Alpha virt. eigenvalues --    0.02870   0.03283   0.04293   0.04578   0.05016
 Alpha virt. eigenvalues --    0.05549   0.06677   0.07580   0.07651   0.07857
 Alpha virt. eigenvalues --    0.08680   0.08973   0.09793   0.10076   0.10296
 Alpha virt. eigenvalues --    0.10381   0.10482   0.10832   0.11848   0.12012
 Alpha virt. eigenvalues --    0.12263   0.12329   0.12380   0.12904   0.13269
 Alpha virt. eigenvalues --    0.13292   0.13520   0.13840   0.15124   0.15560
 Alpha virt. eigenvalues --    0.15591   0.17229   0.18317   0.18459   0.19403
 Alpha virt. eigenvalues --    0.20322   0.20821   0.21015   0.21571   0.21603
 Alpha virt. eigenvalues --    0.24267   0.24319   0.25394   0.25846   0.25985
 Alpha virt. eigenvalues --    0.26838   0.27492   0.27800   0.27818   0.28190
 Alpha virt. eigenvalues --    0.28829   0.29822   0.30325   0.31472   0.32109
 Alpha virt. eigenvalues --    0.32611   0.33376   0.34430   0.35010   0.36070
 Alpha virt. eigenvalues --    0.37452   0.37675   0.39236   0.39551   0.39989
 Alpha virt. eigenvalues --    0.42961   0.43138   0.44347   0.47139   0.48547
 Alpha virt. eigenvalues --    0.53928   0.56097   0.65582   0.68972   0.69936
 Alpha virt. eigenvalues --    0.70575   0.72017   0.73071   0.74893   0.80525
 Alpha virt. eigenvalues --    0.81284   0.82137   0.82167   0.82560   0.83532
 Alpha virt. eigenvalues --    0.84701   0.85712   0.85904   0.86697   0.86854
 Alpha virt. eigenvalues --    0.87408   0.90748   0.91152   0.91917   0.93130
 Alpha virt. eigenvalues --    0.93710   0.94463   0.94918   0.95560   0.97491
 Alpha virt. eigenvalues --    0.97756   1.00641   1.00932   1.01796   1.02044
 Alpha virt. eigenvalues --    1.03795   1.05712   1.06822   1.07279   1.07445
 Alpha virt. eigenvalues --    1.08498   1.09410   1.09793   1.10237   1.10803
 Alpha virt. eigenvalues --    1.11013   1.12477   1.14969   1.16480   1.16825
 Alpha virt. eigenvalues --    1.22082   1.23469   1.28417   1.29230   1.29751
 Alpha virt. eigenvalues --    1.31702   1.41591   1.59184   1.62427   1.65772
 Alpha virt. eigenvalues --    1.70105   1.73726   1.74330   1.74461   1.76058
 Alpha virt. eigenvalues --   20.21814  22.57486  22.61127  22.62249  22.64777
 Alpha virt. eigenvalues --   22.65488  22.67144  22.69758  22.71602  22.72554
 Alpha virt. eigenvalues --   22.74854  22.75666  22.76915  41.75390  41.77385
 Alpha virt. eigenvalues --   41.77471  41.77896  41.78033  41.78321
          Condensed to atoms (all electrons):
              1          2          3          4          5          6
     1  C    5.139816   0.353613   0.323757   0.272081  -0.012005  -0.034163
     2  H    0.353613   0.551419  -0.045868  -0.034175  -0.002630   0.003753
     3  H    0.323757  -0.045868   0.575496  -0.011980   0.001219  -0.002628
     4  C    0.272081  -0.034175  -0.011980   5.139858   0.323755   0.353598
     5  H   -0.012005  -0.002630   0.001219   0.323755   0.575492  -0.045863
     6  H   -0.034163   0.003753  -0.002628   0.353598  -0.045863   0.551437
     7  O   -0.051468  -0.002216   0.002500   0.261271  -0.047972  -0.048022
     8  C    0.000793  -0.000306   0.000154  -0.034380  -0.004781  -0.003358
     9  H    0.000187  -0.000001   0.000008  -0.005089  -0.001697   0.005589
    10  H    0.000472  -0.000028  -0.000001  -0.002641   0.008320  -0.002182
    11  C   -0.001179  -0.000034   0.000014   0.000652   0.000352   0.000230
    12  H   -0.000041  -0.000009   0.000000  -0.000307  -0.000034   0.000001
    13  H    0.000015   0.000000   0.000000   0.000177  -0.000004   0.000010
    14  O   -0.000053   0.000002   0.000000   0.000035  -0.000004  -0.000008
    15  C   -0.000006  -0.000001   0.000000   0.000042   0.000002  -0.000004
    16  H    0.000000   0.000000   0.000000   0.000002   0.000000   0.000000
    17  H    0.000000   0.000000   0.000000  -0.000005   0.000000   0.000000
    18  C    0.000000   0.000000   0.000000  -0.000006   0.000000   0.000000
    19  H    0.000000   0.000000   0.000000   0.000000   0.000000   0.000000
    20  H    0.000000   0.000000   0.000000   0.000000   0.000000   0.000000
    21  O   -0.000001   0.000000   0.000000   0.000002   0.000000   0.000000
    22  C    0.000000   0.000000   0.000000   0.000000   0.000000   0.000000
    23  H    0.000000   0.000000   0.000000   0.000000   0.000000   0.000000
    24  H    0.000000   0.000000   0.000000   0.000000   0.000000   0.000000
    25  C    0.000000   0.000000   0.000000   0.000000   0.000000   0.000000
    26  H    0.000000   0.000000   0.000000   0.000000   0.000000   0.000000
    27  H    0.000000   0.000000   0.000000   0.000000   0.000000   0.000000
    28  O    0.000002   0.000000   0.000000  -0.000001   0.000000   0.000000
    29  C   -0.000006   0.000000   0.000000   0.000000   0.000000   0.000000
    30  H    0.000000   0.000000   0.000000   0.000000   0.000000   0.000000
    31  H    0.000000   0.000000   0.000000   0.000000   0.000000   0.000000
    32  C    0.000042  -0.000004   0.000002  -0.000006   0.000000  -0.000001
    33  H    0.000002   0.000000   0.000000   0.000000   0.000000   0.000000
    34  H   -0.000005   0.000000   0.000000   0.000000   0.000000   0.000000
    35  O    0.000039  -0.000008  -0.000004  -0.000053   0.000000   0.000002
    36  C    0.000651   0.000230   0.000352  -0.001179   0.000014  -0.000034
    37  H   -0.000308   0.000001  -0.000035  -0.000042   0.000000  -0.000009
    38  H    0.000178   0.000010  -0.000004   0.000015   0.000000   0.000000
    39  C   -0.034384  -0.003319  -0.004818   0.000794   0.000154  -0.000306
    40  H   -0.002610  -0.002189   0.008328   0.000475  -0.000001  -0.000028
    41  H   -0.005109   0.005577  -0.001690   0.000185   0.000008  -0.000001
    42  O    0.261248  -0.048016  -0.047978  -0.051457   0.002500  -0.002213
    43  K   -0.007885   0.012502   0.001000  -0.007884   0.000999   0.012509
              7          8          9         10         11         12
     1  C   -0.051468   0.000793   0.000187   0.000472  -0.001179  -0.000041
     2  H   -0.002216  -0.000306  -0.000001  -0.000028  -0.000034  -0.000009
     3  H    0.002500   0.000154   0.000008  -0.000001   0.000014   0.000000
     4  C    0.261271  -0.034380  -0.005089  -0.002641   0.000652  -0.000307
     5  H   -0.047972  -0.004781  -0.001697   0.008320   0.000352  -0.000034
     6  H   -0.048022  -0.003358   0.005589  -0.002182   0.000230   0.000001
     7  O    8.132188   0.260969  -0.048484  -0.047735  -0.051083  -0.002083
     8  C    0.260969   5.145326   0.354173   0.323461   0.269847  -0.033777
     9  H   -0.048484   0.354173   0.550719  -0.045512  -0.033628   0.003802
    10  H   -0.047735   0.323461  -0.045512   0.575450  -0.012268  -0.002839
    11  C   -0.051083   0.269847  -0.033628  -0.012268   5.134756   0.354908
    12  H   -0.002083  -0.033777   0.003802  -0.002839   0.354908   0.551597
    13  H    0.002559  -0.012618  -0.002622   0.001034   0.322106  -0.046474
    14  O   -0.000927  -0.050364  -0.002008   0.002421   0.262026  -0.048399
    15  C   -0.000139   0.000461  -0.000255   0.000175  -0.034234  -0.004743
    16  H   -0.000003   0.000331  -0.000028  -0.000001  -0.002478  -0.002074
    17  H   -0.000021   0.000355   0.000000   0.000010  -0.004990   0.007072
    18  C   -0.000050  -0.001233  -0.000015   0.000014  -0.000101   0.000454
    19  H    0.000000   0.000015   0.000000   0.000000   0.000202   0.000010
    20  H    0.000002  -0.000023  -0.000007   0.000000  -0.000354   0.000001
    21  O    0.000005  -0.000031   0.000001   0.000000  -0.000119  -0.000027
    22  C   -0.000002   0.000005   0.000000   0.000000  -0.000013  -0.000006
    23  H    0.000000   0.000000   0.000000   0.000000   0.000000   0.000000
    24  H    0.000000   0.000000   0.000000   0.000000   0.000002   0.000000
    25  C    0.000001  -0.000008   0.000000   0.000000   0.000030   0.000000
    26  H    0.000000   0.000000   0.000000   0.000000   0.000000   0.000000
    27  H    0.000000   0.000000   0.000000   0.000000   0.000000   0.000000
    28  O    0.000001  -0.000001   0.000000   0.000000   0.000000   0.000000
    29  C    0.000001   0.000000   0.000000   0.000000   0.000001   0.000000
    30  H    0.000000   0.000000   0.000000   0.000000   0.000000   0.000000
    31  H    0.000000   0.000000   0.000000   0.000000   0.000000   0.000000
    32  C   -0.000001   0.000000   0.000000   0.000000   0.000000   0.000000
    33  H    0.000000   0.000000   0.000000   0.000000   0.000000   0.000000
    34  H    0.000000   0.000000   0.000000   0.000000   0.000000   0.000000
    35  O    0.000006   0.000000   0.000000   0.000000   0.000000   0.000000
    36  C   -0.000063  -0.000006   0.000000   0.000000  -0.000001   0.000000
    37  H    0.000002   0.000000   0.000000   0.000000   0.000000   0.000000
    38  H    0.000000   0.000000   0.000000   0.000000   0.000000   0.000000
    39  C   -0.000217   0.000079  -0.000005   0.000002  -0.000006   0.000000
    40  H   -0.000003   0.000002   0.000000   0.000000   0.000000   0.000000
    41  H   -0.000007  -0.000005   0.000000   0.000000   0.000000   0.000000
    42  O   -0.000973  -0.000215  -0.000007  -0.000003  -0.000063   0.000002
    43  K    0.014533  -0.007212   0.012151   0.000863  -0.007828   0.011190
             13         14         15         16         17         18
     1  C    0.000015  -0.000053  -0.000006   0.000000   0.000000   0.000000
     2  H    0.000000   0.000002  -0.000001   0.000000   0.000000   0.000000
     3  H    0.000000   0.000000   0.000000   0.000000   0.000000   0.000000
     4  C    0.000177   0.000035   0.000042   0.000002  -0.000005  -0.000006
     5  H   -0.000004  -0.000004   0.000002   0.000000   0.000000   0.000000
     6  H    0.000010  -0.000008  -0.000004   0.000000   0.000000   0.000000
     7  O    0.002559  -0.000927  -0.000139  -0.000003  -0.000021  -0.000050
     8  C   -0.012618  -0.050364   0.000461   0.000331   0.000355  -0.001233
     9  H   -0.002622  -0.002008  -0.000255  -0.000028   0.000000  -0.000015
    10  H    0.001034   0.002421   0.000175  -0.000001   0.000010   0.000014
    11  C    0.322106   0.262026  -0.034234  -0.002478  -0.004990  -0.000101
    12  H   -0.046474  -0.048399  -0.004743  -0.002074   0.007072   0.000454
    13  H    0.580065  -0.048307  -0.003027   0.007531  -0.002128   0.000335
    14  O   -0.048307   8.130793   0.262314  -0.048594  -0.047940  -0.050148
    15  C   -0.003027   0.262314   5.123925   0.323879   0.352827   0.270225
    16  H    0.007531  -0.048594   0.323879   0.581026  -0.046123  -0.016333
    17  H   -0.002128  -0.047940   0.352827  -0.046123   0.548128  -0.031440
    18  C    0.000335  -0.050148   0.270225  -0.016333  -0.031440   5.174266
    19  H    0.000001   0.002434  -0.003474   0.001099  -0.002608   0.324282
    20  H   -0.000028  -0.001879  -0.039530  -0.002688   0.003893   0.349796
    21  O   -0.000002  -0.001056  -0.050488   0.002619  -0.001742   0.250799
    22  C    0.000002   0.000558   0.002467   0.000139  -0.000169  -0.056719
    23  H    0.000000   0.000008  -0.000495   0.000000  -0.000018   0.005337
    24  H    0.000000  -0.000002   0.001135   0.000005  -0.000014  -0.000028
    25  C    0.000000  -0.000461  -0.000060   0.000013   0.000006  -0.002464
    26  H    0.000000   0.000000  -0.000001   0.000000   0.000000   0.000691
    27  H    0.000000   0.000026   0.000014   0.000003  -0.000001   0.003551
    28  O    0.000000   0.000006   0.000045   0.000000   0.000001   0.000413
    29  C    0.000000  -0.000002   0.000007   0.000000   0.000000   0.000318
    30  H    0.000000   0.000000  -0.000001   0.000000   0.000000  -0.000042
    31  H    0.000000   0.000000   0.000000   0.000000   0.000000   0.000006
    32  C    0.000000   0.000000  -0.000001   0.000000   0.000000   0.000007
    33  H    0.000000   0.000000   0.000000   0.000000   0.000000   0.000000
    34  H    0.000000   0.000000   0.000000   0.000000   0.000000   0.000000
    35  O    0.000000   0.000001   0.000000   0.000000   0.000000  -0.000002
    36  C    0.000000   0.000000   0.000000   0.000000   0.000000   0.000001
    37  H    0.000000   0.000000   0.000000   0.000000   0.000000   0.000000
    38  H    0.000000   0.000000   0.000000   0.000000   0.000000   0.000000
    39  C    0.000000   0.000000   0.000000   0.000000   0.000000   0.000000
    40  H    0.000000   0.000000   0.000000   0.000000   0.000000   0.000000
    41  H    0.000000   0.000000   0.000000   0.000000   0.000000   0.000000
    42  O    0.000000   0.000006  -0.000001   0.000000   0.000000   0.000001
    43  K    0.001117   0.015218  -0.008500   0.001347   0.010937  -0.006439
             19         20         21         22         23         24
     1  C    0.000000   0.000000  -0.000001   0.000000   0.000000   0.000000
     2  H    0.000000   0.000000   0.000000   0.000000   0.000000   0.000000
     3  H    0.000000   0.000000   0.000000   0.000000   0.000000   0.000000
     4  C    0.000000   0.000000   0.000002   0.000000   0.000000   0.000000
     5  H    0.000000   0.000000   0.000000   0.000000   0.000000   0.000000
     6  H    0.000000   0.000000   0.000000   0.000000   0.000000   0.000000
     7  O    0.000000   0.000002   0.000005  -0.000002   0.000000   0.000000
     8  C    0.000015  -0.000023  -0.000031   0.000005   0.000000   0.000000
     9  H    0.000000  -0.000007   0.000001   0.000000   0.000000   0.000000
    10  H    0.000000   0.000000   0.000000   0.000000   0.000000   0.000000
    11  C    0.000202  -0.000354  -0.000119  -0.000013   0.000000   0.000002
    12  H    0.000010   0.000001  -0.000027  -0.000006   0.000000   0.000000
    13  H    0.000001  -0.000028  -0.000002   0.000002   0.000000   0.000000
    14  O    0.002434  -0.001879  -0.001056   0.000558   0.000008  -0.000002
    15  C   -0.003474  -0.039530  -0.050488   0.002467  -0.000495   0.001135
    16  H    0.001099  -0.002688   0.002619   0.000139   0.000000   0.000005
    17  H   -0.002608   0.003893  -0.001742  -0.000169  -0.000018  -0.000014
    18  C    0.324282   0.349796   0.250799  -0.056719   0.005337  -0.000028
    19  H    0.569971  -0.046935  -0.046818  -0.009911   0.000097   0.009643
    20  H   -0.046935   0.562130  -0.048385   0.003205  -0.000228  -0.001561
    21  O   -0.046818  -0.048385   8.120497   0.265306  -0.042230  -0.043342
    22  C   -0.009911   0.003205   0.265306   5.216487   0.376594   0.321388
    23  H    0.000097  -0.000228  -0.042230   0.376594   0.511594  -0.032922
    24  H    0.009643  -0.001561  -0.043342   0.321388  -0.032922   0.566478
    25  C   -0.000896   0.002994  -0.047652   0.221924  -0.039466  -0.027394
    26  H    0.000020  -0.000126   0.003150  -0.027337  -0.002771   0.003948
    27  H   -0.000062   0.001095  -0.006160  -0.039498   0.002591  -0.002765
    28  O    0.000011  -0.000035  -0.000896  -0.047592  -0.006146   0.003152
    29  C    0.000006  -0.000042   0.000426  -0.002498   0.003508   0.000696
    30  H    0.000000   0.000000  -0.000036   0.002984   0.001095  -0.000127
    31  H    0.000000   0.000000   0.000010  -0.000884  -0.000060   0.000020
    32  C    0.000000  -0.000001   0.000046  -0.000060   0.000011  -0.000001
    33  H    0.000000   0.000000   0.000000   0.000013   0.000003   0.000000
    34  H    0.000000   0.000000   0.000001   0.000006  -0.000001   0.000000
    35  O    0.000000   0.000000   0.000006  -0.000462   0.000026   0.000000
    36  C    0.000000   0.000000   0.000000   0.000030   0.000000   0.000000
    37  H    0.000000   0.000000   0.000000   0.000000   0.000000   0.000000
    38  H    0.000000   0.000000   0.000000   0.000000   0.000000   0.000000
    39  C    0.000000   0.000000  -0.000002  -0.000009   0.000000   0.000000
    40  H    0.000000   0.000000   0.000000   0.000000   0.000000   0.000000
    41  H    0.000000   0.000000   0.000000   0.000000   0.000000   0.000000
    42  O    0.000000   0.000000   0.000001   0.000001   0.000000   0.000000
    43  K    0.002394   0.010776   0.013391  -0.003353   0.000401   0.002131
             25         26         27         28         29         30
     1  C    0.000000   0.000000   0.000000   0.000002  -0.000006   0.000000
     2  H    0.000000   0.000000   0.000000   0.000000   0.000000   0.000000
     3  H    0.000000   0.000000   0.000000   0.000000   0.000000   0.000000
     4  C    0.000000   0.000000   0.000000  -0.000001   0.000000   0.000000
     5  H    0.000000   0.000000   0.000000   0.000000   0.000000   0.000000
     6  H    0.000000   0.000000   0.000000   0.000000   0.000000   0.000000
     7  O    0.000001   0.000000   0.000000   0.000001   0.000001   0.000000
     8  C   -0.000008   0.000000   0.000000  -0.000001   0.000000   0.000000
     9  H    0.000000   0.000000   0.000000   0.000000   0.000000   0.000000
    10  H    0.000000   0.000000   0.000000   0.000000   0.000000   0.000000
    11  C    0.000030   0.000000   0.000000   0.000000   0.000001   0.000000
    12  H    0.000000   0.000000   0.000000   0.000000   0.000000   0.000000
    13  H    0.000000   0.000000   0.000000   0.000000   0.000000   0.000000
    14  O   -0.000461   0.000000   0.000026   0.000006  -0.000002   0.000000
    15  C   -0.000060  -0.000001   0.000014   0.000045   0.000007  -0.000001
    16  H    0.000013   0.000000   0.000003   0.000000   0.000000   0.000000
    17  H    0.000006   0.000000  -0.000001   0.000001   0.000000   0.000000
    18  C   -0.002464   0.000691   0.003551   0.000413   0.000318  -0.000042
    19  H   -0.000896   0.000020  -0.000062   0.000011   0.000006   0.000000
    20  H    0.002994  -0.000126   0.001095  -0.000035  -0.000042   0.000000
    21  O   -0.047652   0.003150  -0.006160  -0.000896   0.000426  -0.000036
    22  C    0.221924  -0.027337  -0.039498  -0.047592  -0.002498   0.002984
    23  H   -0.039466  -0.002771   0.002591  -0.006146   0.003508   0.001095
    24  H   -0.027394   0.003948  -0.002765   0.003152   0.000696  -0.000127
    25  C    5.216664   0.321421   0.376577   0.265098  -0.056660   0.003252
    26  H    0.321421   0.566371  -0.032977  -0.043280   0.000055  -0.001567
    27  H    0.376577  -0.032977   0.511584  -0.042226   0.005322  -0.000228
    28  O    0.265098  -0.043280  -0.042226   8.120340   0.250809  -0.048382
    29  C   -0.056660   0.000055   0.005322   0.250809   5.174235   0.349726
    30  H    0.003252  -0.001567  -0.000228  -0.048382   0.349726   0.562246
    31  H   -0.009954   0.009592   0.000099  -0.046826   0.324271  -0.046972
    32  C    0.002463   0.001138  -0.000495  -0.050412   0.270310  -0.039499
    33  H    0.000136   0.000006   0.000000   0.002616  -0.016371  -0.002694
    34  H   -0.000166  -0.000014  -0.000018  -0.001734  -0.031437   0.003894
    35  O    0.000552  -0.000002   0.000008  -0.001057  -0.050137  -0.001882
    36  C   -0.000013   0.000002   0.000000  -0.000113  -0.000098  -0.000356
    37  H   -0.000005   0.000000   0.000000  -0.000027   0.000454   0.000001
    38  H    0.000002   0.000000   0.000000  -0.000002   0.000334  -0.000028
    39  C    0.000005   0.000000   0.000000  -0.000031  -0.001232  -0.000023
    40  H    0.000000   0.000000   0.000000   0.000000   0.000014   0.000000
    41  H    0.000000   0.000000   0.000000   0.000001  -0.000015  -0.000007
    42  O   -0.000002   0.000000   0.000000   0.000005  -0.000050   0.000002
    43  K   -0.003365   0.002143   0.000395   0.013472  -0.006458   0.010775
             31         32         33         34         35         36
     1  C    0.000000   0.000042   0.000002  -0.000005   0.000039   0.000651
     2  H    0.000000  -0.000004   0.000000   0.000000  -0.000008   0.000230
     3  H    0.000000   0.000002   0.000000   0.000000  -0.000004   0.000352
     4  C    0.000000  -0.000006   0.000000   0.000000  -0.000053  -0.001179
     5  H    0.000000   0.000000   0.000000   0.000000   0.000000   0.000014
     6  H    0.000000  -0.000001   0.000000   0.000000   0.000002  -0.000034
     7  O    0.000000  -0.000001   0.000000   0.000000   0.000006  -0.000063
     8  C    0.000000   0.000000   0.000000   0.000000   0.000000  -0.000006
     9  H    0.000000   0.000000   0.000000   0.000000   0.000000   0.000000
    10  H    0.000000   0.000000   0.000000   0.000000   0.000000   0.000000
    11  C    0.000000   0.000000   0.000000   0.000000   0.000000  -0.000001
    12  H    0.000000   0.000000   0.000000   0.000000   0.000000   0.000000
    13  H    0.000000   0.000000   0.000000   0.000000   0.000000   0.000000
    14  O    0.000000   0.000000   0.000000   0.000000   0.000001   0.000000
    15  C    0.000000  -0.000001   0.000000   0.000000   0.000000   0.000000
    16  H    0.000000   0.000000   0.000000   0.000000   0.000000   0.000000
    17  H    0.000000   0.000000   0.000000   0.000000   0.000000   0.000000
    18  C    0.000006   0.000007   0.000000   0.000000  -0.000002   0.000001
    19  H    0.000000   0.000000   0.000000   0.000000   0.000000   0.000000
    20  H    0.000000  -0.000001   0.000000   0.000000   0.000000   0.000000
    21  O    0.000010   0.000046   0.000000   0.000001   0.000006   0.000000
    22  C   -0.000884  -0.000060   0.000013   0.000006  -0.000462   0.000030
    23  H   -0.000060   0.000011   0.000003  -0.000001   0.000026   0.000000
    24  H    0.000020  -0.000001   0.000000   0.000000   0.000000   0.000000
    25  C   -0.009954   0.002463   0.000136  -0.000166   0.000552  -0.000013
    26  H    0.009592   0.001138   0.000006  -0.000014  -0.000002   0.000002
    27  H    0.000099  -0.000495   0.000000  -0.000018   0.000008   0.000000
    28  O   -0.046826  -0.050412   0.002616  -0.001734  -0.001057  -0.000113
    29  C    0.324271   0.270310  -0.016371  -0.031437  -0.050137  -0.000098
    30  H   -0.046972  -0.039499  -0.002694   0.003894  -0.001882  -0.000356
    31  H    0.570036  -0.003451   0.001102  -0.002605   0.002435   0.000203
    32  C   -0.003451   5.123842   0.323867   0.352862   0.262281  -0.034265
    33  H    0.001102   0.323867   0.581048  -0.046118  -0.048588  -0.002422
    34  H   -0.002605   0.352862  -0.046118   0.548020  -0.047948  -0.005038
    35  O    0.002435   0.262281  -0.048588  -0.047948   8.130858   0.262028
    36  C    0.000203  -0.034265  -0.002422  -0.005038   0.262028   5.134770
    37  H    0.000010  -0.004674  -0.002087   0.007058  -0.048405   0.354902
    38  H    0.000001  -0.003094   0.007549  -0.002114  -0.048304   0.322114
    39  C    0.000015   0.000452   0.000336   0.000352  -0.050357   0.269817
    40  H    0.000000   0.000174  -0.000001   0.000010   0.002421  -0.012280
    41  H    0.000000  -0.000254  -0.000028  -0.000001  -0.002005  -0.033606
    42  O    0.000000  -0.000143  -0.000003  -0.000021  -0.000927  -0.051129
    43  K    0.002386  -0.008472   0.001345   0.010947   0.015202  -0.007834
             37         38         39         40         41         42
     1  C   -0.000308   0.000178  -0.034384  -0.002610  -0.005109   0.261248
     2  H    0.000001   0.000010  -0.003319  -0.002189   0.005577  -0.048016
     3  H   -0.000035  -0.000004  -0.004818   0.008328  -0.001690  -0.047978
     4  C   -0.000042   0.000015   0.000794   0.000475   0.000185  -0.051457
     5  H    0.000000   0.000000   0.000154  -0.000001   0.000008   0.002500
     6  H   -0.000009   0.000000  -0.000306  -0.000028  -0.000001  -0.002213
     7  O    0.000002   0.000000  -0.000217  -0.000003  -0.000007  -0.000973
     8  C    0.000000   0.000000   0.000079   0.000002  -0.000005  -0.000215
     9  H    0.000000   0.000000  -0.000005   0.000000   0.000000  -0.000007
    10  H    0.000000   0.000000   0.000002   0.000000   0.000000  -0.000003
    11  C    0.000000   0.000000  -0.000006   0.000000   0.000000  -0.000063
    12  H    0.000000   0.000000   0.000000   0.000000   0.000000   0.000002
    13  H    0.000000   0.000000   0.000000   0.000000   0.000000   0.000000
    14  O    0.000000   0.000000   0.000000   0.000000   0.000000   0.000006
    15  C    0.000000   0.000000   0.000000   0.000000   0.000000  -0.000001
    16  H    0.000000   0.000000   0.000000   0.000000   0.000000   0.000000
    17  H    0.000000   0.000000   0.000000   0.000000   0.000000   0.000000
    18  C    0.000000   0.000000   0.000000   0.000000   0.000000   0.000001
    19  H    0.000000   0.000000   0.000000   0.000000   0.000000   0.000000
    20  H    0.000000   0.000000   0.000000   0.000000   0.000000   0.000000
    21  O    0.000000   0.000000  -0.000002   0.000000   0.000000   0.000001
    22  C    0.000000   0.000000  -0.000009   0.000000   0.000000   0.000001
    23  H    0.000000   0.000000   0.000000   0.000000   0.000000   0.000000
    24  H    0.000000   0.000000   0.000000   0.000000   0.000000   0.000000
    25  C   -0.000005   0.000002   0.000005   0.000000   0.000000  -0.000002
    26  H    0.000000   0.000000   0.000000   0.000000   0.000000   0.000000
    27  H    0.000000   0.000000   0.000000   0.000000   0.000000   0.000000
    28  O   -0.000027  -0.000002  -0.000031   0.000000   0.000001   0.000005
    29  C    0.000454   0.000334  -0.001232   0.000014  -0.000015  -0.000050
    30  H    0.000001  -0.000028  -0.000023   0.000000  -0.000007   0.000002
    31  H    0.000010   0.000001   0.000015   0.000000   0.000000   0.000000
    32  C   -0.004674  -0.003094   0.000452   0.000174  -0.000254  -0.000143
    33  H   -0.002087   0.007549   0.000336  -0.000001  -0.000028  -0.000003
    34  H    0.007058  -0.002114   0.000352   0.000010  -0.000001  -0.000021
    35  O   -0.048405  -0.048304  -0.050357   0.002421  -0.002005  -0.000927
    36  C    0.354902   0.322114   0.269817  -0.012280  -0.033606  -0.051129
    37  H    0.551672  -0.046474  -0.033820  -0.002844   0.003802  -0.002087
    38  H   -0.046474   0.580005  -0.012576   0.001031  -0.002617   0.002560
    39  C   -0.033820  -0.012576   5.145425   0.323464   0.354185   0.260966
    40  H   -0.002844   0.001031   0.323464   0.575407  -0.045497  -0.047721
    41  H    0.003802  -0.002617   0.354185  -0.045497   0.550625  -0.048485
    42  O   -0.002087   0.002560   0.260966  -0.047721  -0.048485   8.132381
    43  K    0.011194   0.001114  -0.007210   0.000866   0.012152   0.014490
             43
     1  C   -0.007885
     2  H    0.012502
     3  H    0.001000
     4  C   -0.007884
     5  H    0.000999
     6  H    0.012509
     7  O    0.014533
     8  C   -0.007212
     9  H    0.012151
    10  H    0.000863
    11  C   -0.007828
    12  H    0.011190
    13  H    0.001117
    14  O    0.015218
    15  C   -0.008500
    16  H    0.001347
    17  H    0.010937
    18  C   -0.006439
    19  H    0.002394
    20  H    0.010776
    21  O    0.013391
    22  C   -0.003353
    23  H    0.000401
    24  H    0.002131
    25  C   -0.003365
    26  H    0.002143
    27  H    0.000395
    28  O    0.013472
    29  C   -0.006458
    30  H    0.010775
    31  H    0.002386
    32  C   -0.008472
    33  H    0.001345
    34  H    0.010947
    35  O    0.015202
    36  C   -0.007834
    37  H    0.011194
    38  H    0.001114
    39  C   -0.007210
    40  H    0.000866
    41  H    0.012152
    42  O    0.014490
    43  K    8.123976
 Mulliken atomic charges:
              1
     1  C   -0.203671
     2  H    0.211696
     3  H    0.202177
     4  C   -0.203735
     5  H    0.202178
     6  H    0.211690
     7  O   -0.372566
     8  C   -0.207651
     9  H    0.212730
    10  H    0.200989
    11  C   -0.196747
    12  H    0.211776
    13  H    0.200259
    14  O   -0.375695
    15  C   -0.192560
    16  H    0.200328
    17  H    0.213973
    18  C   -0.215477
    19  H    0.200520
    20  H    0.207931
    21  O   -0.367272
    22  C   -0.222594
    23  H    0.223068
    24  H    0.199557
    25  C   -0.222571
    26  H    0.199539
    27  H    0.223163
    28  O   -0.367208
    29  C   -0.215488
    30  H    0.207869
    31  H    0.200567
    32  C   -0.192661
    33  H    0.200289
    34  H    0.214071
    35  O   -0.375722
    36  C   -0.196677
    37  H    0.211722
    38  H    0.200302
    39  C   -0.207730
    40  H    0.200984
    41  H    0.212790
    42  O   -0.372669
    43  K    0.738524
 Sum of Mulliken atomic charges =   1.00000
 Mulliken charges with hydrogens summed into heavy atoms:
              1
     1  C    0.210202
     4  C    0.210133
     7  O   -0.372566
     8  C    0.206068
    11  C    0.215288
    14  O   -0.375695
    15  C    0.221741
    18  C    0.192975
    21  O   -0.367272
    22  C    0.200032
    25  C    0.200131
    28  O   -0.367208
    29  C    0.192948
    32  C    0.221699
    35  O   -0.375722
    36  C    0.215347
    39  C    0.206044
    42  O   -0.372669
    43  K    0.738524
 Sum of Mulliken charges with hydrogens summed into heavy atoms =   1.00000
          Condensed to fragments (all electrons):
     1       0.261476
     2       0.738524
 Electronic spatial extent (au):  <R**2>=           6498.8875
 Charge=              1.0000 electrons
 Dipole moment (field-independent basis, Debye):
    X=              0.2024    Y=              0.0022    Z=              0.0009  Tot=              0.2024
 Quadrupole moment (field-independent basis, Debye-Ang):
   XX=            -64.5159   YY=            -68.1677   ZZ=           -116.6668
   XY=             -0.0223   XZ=              0.0219   YZ=              1.9032
 Traceless Quadrupole moment (field-independent basis, Debye-Ang):
   XX=             18.6009   YY=             14.9491   ZZ=            -33.5500
   XY=             -0.0223   XZ=              0.0219   YZ=              1.9032
 Octapole moment (field-independent basis, Debye-Ang**2):
  XXX=              4.5838  YYY=              0.0724  ZZZ=              0.0097  XYY=             -3.2434
  XXY=             -0.0681  XXZ=             -0.0761  XZZ=             -4.6649  YZZ=              0.0514
  YYZ=              0.0856  XYZ=             -9.9938
 Hexadecapole moment (field-independent basis, Debye-Ang**3):
 XXXX=          -3237.9991 YYYY=          -3158.3291 ZZZZ=           -311.3344 XXXY=             -0.2414
 XXXZ=              0.8856 YYYX=              0.2298 YYYZ=            -18.1064 ZZZX=              0.0353
 ZZZY=              1.5052 XXYY=          -1077.3782 XXZZ=           -717.4691 YYZZ=           -705.1723
 XXYZ=             36.8014 YYXZ=             -0.7094 ZZXY=             -0.0677
 N-N= 1.648827347245D+03 E-N=-5.496857811493D+03  KE= 9.285440014241D+02
 Counterpoise: doing DCBS calculation for fragment   1 NewBq=T
 Basis read from rwf:  (6D, 10F)
 Pseudo-potential data read from rwf file.
 There are   245 symmetry adapted basis functions of A   symmetry.
 Integral buffers will be    131072 words long.
 Raffenetti 2 integral format.
 Two-electron integral symmetry is turned on.
   245 basis functions,   553 primitive gaussians,   245 cartesian basis functions
    72 alpha electrons       72 beta electrons
       nuclear repulsion energy      1445.8686683325 Hartrees.
 NAtoms=   43 NActive=   43 NUniq=   43 SFac= 7.50D-01 NAtFMM=   80 NAOKFM=F Big=F
 One-electron integrals computed using PRISM.
   1 Symmetry operations used in ECPInt.
 ECPInt:  NShTT=   13695 NPrTT=   65797 LenC2=   12202 LenP2D=   36913.
 LDataN:  DoStor=T MaxTD1= 2 Len=   12
 NBasis=   245 RedAO= T  NBF=   245
 NBsUse=   245 1.00D-06 NBFU=   245
 Harris functional with IExCor=  402 diagonalized for initial guess.
 ExpMin= 1.65D-02 ExpMax= 7.82D+03 ExpMxC= 1.18D+03 IAcc=3 IRadAn=         0 AccDes= 0.00D+00
 HarFok:  IExCor=  402 AccDes= 0.00D+00 IRadAn=         0 IDoV= 1
 ScaDFX=  1.000000  1.000000  1.000000  1.000000
 FoFCou: FMM=F IPFlag=           0 FMFlag=      100000 FMFlg1=           0
         NFxFlg=           0 DoJE=T BraDBF=F KetDBF=T FulRan=T
         Omega=  0.000000  0.000000  1.000000  0.000000  0.000000 ICntrl=     500 IOpCl=  0
         NMat0=    1 NMatS0=    1 NMatT0=    0 NMatD0=    1 NMtDS0=    0 NMtDT0=    0
         I1Cent=           4 NGrid=           0.
 Petite list used in FoFCou.
 Initial guess orbital symmetries:
       Occupied  (A) (A) (A) (A) (A) (A) (A) (A) (A) (A) (A) (A)
                 (A) (A) (A) (A) (A) (A) (A) (A) (A) (A) (A) (A)
                 (A) (A) (A) (A) (A) (A) (A) (A) (A) (A) (A) (A)
                 (A) (A) (A) (A) (A) (A) (A) (A) (A) (A) (A) (A)
                 (A) (A) (A) (A) (A) (A) (A) (A) (A) (A) (A) (A)
                 (A) (A) (A) (A) (A) (A) (A) (A) (A) (A) (A) (A)
       Virtual   (A) (A) (A) (A) (A) (A) (A) (A) (A) (A) (A) (A)
                 (A) (A) (A) (A) (A) (A) (A) (A) (A) (A) (A) (A)
                 (A) (A) (A) (A) (A) (A) (A) (A) (A) (A) (A) (A)
                 (A) (A) (A) (A) (A) (A) (A) (A) (A) (A) (A) (A)
                 (A) (A) (A) (A) (A) (A) (A) (A) (A) (A) (A) (A)
                 (A) (A) (A) (A) (A) (A) (A) (A) (A) (A) (A) (A)
                 (A) (A) (A) (A) (A) (A) (A) (A) (A) (A) (A) (A)
                 (A) (A) (A) (A) (A) (A) (A) (A) (A) (A) (A) (A)
                 (A) (A) (A) (A) (A) (A) (A) (A) (A) (A) (A) (A)
                 (A) (A) (A) (A) (A) (A) (A) (A) (A) (A) (A) (A)
                 (A) (A) (A) (A) (A) (A) (A) (A) (A) (A) (A) (A)
                 (A) (A) (A) (A) (A) (A) (A) (A) (A) (A) (A) (A)
                 (A) (A) (A) (A) (A) (A) (A) (A) (A) (A) (A) (A)
                 (A) (A) (A) (A) (A) (A) (A) (A) (A) (A) (A) (A)
                 (A) (A) (A) (A) (A)
 The electronic state of the initial guess is 1-A.
 Requested convergence on RMS density matrix=1.00D-08 within 128 cycles.
 Requested convergence on MAX density matrix=1.00D-06.
 Requested convergence on             energy=1.00D-06.
 No special actions if energy rises.
 Keep R1 ints in memory in canonical form, NReq=462103699.
 SCF Done:  E(RB3LYP) =  -922.840066769     A.U. after   11 cycles
             Convg  =    0.5727D-08             -V/T =  2.0054

 **********************************************************************

            Population analysis using the SCF density.

 **********************************************************************

 Orbital symmetries:
       Occupied  (A) (A) (A) (A) (A) (A) (A) (A) (A) (A) (A) (A)
                 (A) (A) (A) (A) (A) (A) (A) (A) (A) (A) (A) (A)
                 (A) (A) (A) (A) (A) (A) (A) (A) (A) (A) (A) (A)
                 (A) (A) (A) (A) (A) (A) (A) (A) (A) (A) (A) (A)
                 (A) (A) (A) (A) (A) (A) (A) (A) (A) (A) (A) (A)
                 (A) (A) (A) (A) (A) (A) (A) (A) (A) (A) (A) (A)
       Virtual   (A) (A) (A) (A) (A) (A) (A) (A) (A) (A) (A) (A)
                 (A) (A) (A) (A) (A) (A) (A) (A) (A) (A) (A) (A)
                 (A) (A) (A) (A) (A) (A) (A) (A) (A) (A) (A) (A)
                 (A) (A) (A) (A) (A) (A) (A) (A) (A) (A) (A) (A)
                 (A) (A) (A) (A) (A) (A) (A) (A) (A) (A) (A) (A)
                 (A) (A) (A) (A) (A) (A) (A) (A) (A) (A) (A) (A)
                 (A) (A) (A) (A) (A) (A) (A) (A) (A) (A) (A) (A)
                 (A) (A) (A) (A) (A) (A) (A) (A) (A) (A) (A) (A)
                 (A) (A) (A) (A) (A) (A) (A) (A) (A) (A) (A) (A)
                 (A) (A) (A) (A) (A) (A) (A) (A) (A) (A) (A) (A)
                 (A) (A) (A) (A) (A) (A) (A) (A) (A) (A) (A) (A)
                 (A) (A) (A) (A) (A) (A) (A) (A) (A) (A) (A) (A)
                 (A) (A) (A) (A) (A) (A) (A) (A) (A) (A) (A) (A)
                 (A) (A) (A) (A) (A) (A) (A) (A) (A) (A) (A) (A)
                 (A) (A) (A) (A) (A)
 The electronic state is 1-A.
 Alpha  occ. eigenvalues --  -19.11377 -19.11373 -19.11343 -19.11341 -19.11270
 Alpha  occ. eigenvalues --  -19.11270 -10.22432 -10.22428 -10.22400 -10.22381
 Alpha  occ. eigenvalues --  -10.22329 -10.22327 -10.22320 -10.22319 -10.22317
 Alpha  occ. eigenvalues --  -10.22298 -10.22297 -10.22294  -1.01052  -1.00426
 Alpha  occ. eigenvalues --   -1.00396  -0.98964  -0.98901  -0.98053  -0.78017
 Alpha  occ. eigenvalues --   -0.76083  -0.75777  -0.71571  -0.71262  -0.68464
 Alpha  occ. eigenvalues --   -0.62351  -0.60435  -0.60196  -0.58797  -0.58512
 Alpha  occ. eigenvalues --   -0.57455  -0.49723  -0.49337  -0.49061  -0.48735
 Alpha  occ. eigenvalues --   -0.48213  -0.47227  -0.46541  -0.45962  -0.44796
 Alpha  occ. eigenvalues --   -0.44393  -0.43489  -0.42394  -0.41829  -0.41510
 Alpha  occ. eigenvalues --   -0.40799  -0.40417  -0.39427  -0.38437  -0.38320
 Alpha  occ. eigenvalues --   -0.37103  -0.36235  -0.36149  -0.36105  -0.33665
 Alpha  occ. eigenvalues --   -0.29491  -0.29447  -0.29081  -0.28771  -0.28698
 Alpha  occ. eigenvalues --   -0.28168  -0.24744  -0.24034  -0.23448  -0.23225
 Alpha  occ. eigenvalues --   -0.22463  -0.22213
 Alpha virt. eigenvalues --    0.01821   0.04474   0.04489   0.04849   0.08333
 Alpha virt. eigenvalues --    0.10105   0.10293   0.11079   0.12208   0.12506
 Alpha virt. eigenvalues --    0.12790   0.13304   0.13672   0.14527   0.14799
 Alpha virt. eigenvalues --    0.15088   0.16247   0.16665   0.16801   0.17103
 Alpha virt. eigenvalues --    0.17787   0.18856   0.19610   0.19813   0.20154
 Alpha virt. eigenvalues --    0.20729   0.20829   0.21698   0.22047   0.22155
 Alpha virt. eigenvalues --    0.22348   0.22452   0.22911   0.23980   0.24051
 Alpha virt. eigenvalues --    0.24092   0.24465   0.24473   0.25279   0.25390
 Alpha virt. eigenvalues --    0.25658   0.26083   0.26093   0.27346   0.27766
 Alpha virt. eigenvalues --    0.28117   0.29642   0.31670   0.32085   0.32786
 Alpha virt. eigenvalues --    0.34085   0.34254   0.34613   0.35216   0.35818
 Alpha virt. eigenvalues --    0.37150   0.37456   0.38167   0.38814   0.39025
 Alpha virt. eigenvalues --    0.39294   0.40273   0.40325   0.40530   0.41031
 Alpha virt. eigenvalues --    0.42095   0.42591   0.44180   0.44431   0.45028
 Alpha virt. eigenvalues --    0.45764   0.46188   0.47636   0.48083   0.48841
 Alpha virt. eigenvalues --    0.50754   0.50762   0.52447   0.52650   0.53323
 Alpha virt. eigenvalues --    0.55692   0.56151   0.56220   0.58365   0.59750
 Alpha virt. eigenvalues --    0.62088   0.68978   0.76474   0.82358   0.82994
 Alpha virt. eigenvalues --    0.83815   0.85296   0.86398   0.88172   0.93435
 Alpha virt. eigenvalues --    0.93955   0.95098   0.95771   0.97671   0.98478
 Alpha virt. eigenvalues --    0.98669   0.99781   1.00145   1.00542   1.01028
 Alpha virt. eigenvalues --    1.02033   1.02840   1.03556   1.03558   1.05569
 Alpha virt. eigenvalues --    1.06095   1.06725   1.07314   1.07609   1.08149
 Alpha virt. eigenvalues --    1.09948   1.10519   1.13356   1.14061   1.15145
 Alpha virt. eigenvalues --    1.15323   1.16507   1.18295   1.18912   1.20521
 Alpha virt. eigenvalues --    1.20590   1.21083   1.22216   1.22333   1.23194
 Alpha virt. eigenvalues --    1.24376   1.25250   1.28665   1.29345   1.29367
 Alpha virt. eigenvalues --    1.30301   1.35094   1.36815   1.39961   1.41666
 Alpha virt. eigenvalues --    1.41919   1.44287   1.46357   1.50099   1.79489
 Alpha virt. eigenvalues --    1.84517   1.87123   1.88037   1.88151   1.89362
 Alpha virt. eigenvalues --    2.10782   3.82146   3.94706   3.95874   8.11578
 Alpha virt. eigenvalues --   22.70245  22.73884  22.75020  22.77533  22.78258
 Alpha virt. eigenvalues --   22.79900  22.82516  22.84374  22.85309  22.87628
 Alpha virt. eigenvalues --   22.88433  22.89680  41.89685  41.91716  41.91765
 Alpha virt. eigenvalues --   41.92223  41.92329  41.92621
          Condensed to atoms (all electrons):
              1          2          3          4          5          6
     1  C    5.162805   0.346126   0.291692   0.254173  -0.008175  -0.031111
     2  H    0.346126   0.585354  -0.058757  -0.031133  -0.004396   0.004403
     3  H    0.291692  -0.058757   0.662876  -0.008136   0.003009  -0.004394
     4  C    0.254173  -0.031133  -0.008136   5.162739   0.291690   0.346152
     5  H   -0.008175  -0.004396   0.003009   0.291690   0.662896  -0.058750
     6  H   -0.031111   0.004403  -0.004394   0.346152  -0.058750   0.585256
     7  O   -0.049070  -0.001635   0.002614   0.273186  -0.049045  -0.048488
     8  C    0.000664  -0.000278   0.000172  -0.029480  -0.008683  -0.004509
     9  H    0.000156   0.000004   0.000007  -0.006076  -0.002122   0.006920
    10  H    0.000644  -0.000053   0.000004  -0.006363   0.010853  -0.002693
    11  C   -0.000973  -0.000076   0.000020   0.000259   0.000502   0.000217
    12  H   -0.000088  -0.000008   0.000000  -0.000199  -0.000067   0.000006
    13  H    0.000020   0.000000   0.000000   0.000200  -0.000001   0.000010
    14  O   -0.000026   0.000003   0.000000   0.000183  -0.000004  -0.000010
    15  C   -0.000002  -0.000001   0.000000   0.000025   0.000002  -0.000005
    16  H    0.000000   0.000000   0.000000   0.000002   0.000000   0.000000
    17  H    0.000000   0.000000   0.000000  -0.000006   0.000000   0.000000
    18  C   -0.000001   0.000000   0.000000  -0.000003   0.000000   0.000000
    19  H    0.000000   0.000000   0.000000   0.000000   0.000000   0.000000
    20  H    0.000000   0.000000   0.000000  -0.000001   0.000000   0.000000
    21  O   -0.000001   0.000000   0.000000   0.000001   0.000000   0.000000
    22  C    0.000000   0.000000   0.000000   0.000000   0.000000   0.000000
    23  H    0.000000   0.000000   0.000000   0.000000   0.000000   0.000000
    24  H    0.000000   0.000000   0.000000   0.000000   0.000000   0.000000
    25  C    0.000000   0.000000   0.000000   0.000000   0.000000   0.000000
    26  H    0.000000   0.000000   0.000000   0.000000   0.000000   0.000000
    27  H    0.000000   0.000000   0.000000   0.000000   0.000000   0.000000
    28  O    0.000001   0.000000   0.000000  -0.000001   0.000000   0.000000
    29  C   -0.000003   0.000000   0.000000  -0.000001   0.000000   0.000000
    30  H   -0.000001   0.000000   0.000000   0.000000   0.000000   0.000000
    31  H    0.000000   0.000000   0.000000   0.000000   0.000000   0.000000
    32  C    0.000025  -0.000005   0.000002  -0.000002   0.000000  -0.000001
    33  H    0.000002   0.000000   0.000000   0.000000   0.000000   0.000000
    34  H   -0.000006   0.000000   0.000000   0.000000   0.000000   0.000000
    35  O    0.000188  -0.000010  -0.000004  -0.000026   0.000000   0.000003
    36  C    0.000254   0.000217   0.000501  -0.000972   0.000020  -0.000076
    37  H   -0.000199   0.000006  -0.000068  -0.000089   0.000000  -0.000008
    38  H    0.000201   0.000010  -0.000001   0.000020   0.000000   0.000000
    39  C   -0.029472  -0.004466  -0.008730   0.000666   0.000171  -0.000278
    40  H   -0.006337  -0.002702   0.010866   0.000648   0.000004  -0.000052
    41  H   -0.006095   0.006908  -0.002114   0.000154   0.000007   0.000004
    42  O    0.273167  -0.048489  -0.049050  -0.049055   0.002614  -0.001632
    43  K   -0.009604   0.014481   0.001770  -0.009597   0.001769   0.014486
              7          8          9         10         11         12
     1  C   -0.049070   0.000664   0.000156   0.000644  -0.000973  -0.000088
     2  H   -0.001635  -0.000278   0.000004  -0.000053  -0.000076  -0.000008
     3  H    0.002614   0.000172   0.000007   0.000004   0.000020   0.000000
     4  C    0.273186  -0.029480  -0.006076  -0.006363   0.000259  -0.000199
     5  H   -0.049045  -0.008683  -0.002122   0.010853   0.000502  -0.000067
     6  H   -0.048488  -0.004509   0.006920  -0.002693   0.000217   0.000006
     7  O    8.015759   0.273256  -0.048654  -0.048730  -0.048246  -0.001438
     8  C    0.273256   5.160356   0.348837   0.289755   0.252869  -0.030109
     9  H   -0.048654   0.348837   0.580208  -0.058597  -0.030843   0.004447
    10  H   -0.048730   0.289755  -0.058597   0.665825  -0.008392  -0.004740
    11  C   -0.048246   0.252869  -0.030843  -0.008392   5.164030   0.345677
    12  H   -0.001438  -0.030109   0.004447  -0.004740   0.345677   0.588852
    13  H    0.002656  -0.009109  -0.004284   0.002853   0.290640  -0.058956
    14  O   -0.001259  -0.047543  -0.001498   0.002540   0.273680  -0.049015
    15  C   -0.000054   0.000407  -0.000232   0.000192  -0.030818  -0.006632
    16  H   -0.000002   0.000451  -0.000050   0.000002  -0.005660  -0.002561
    17  H   -0.000022   0.000339   0.000005   0.000009  -0.006964   0.008903
    18  C   -0.000026  -0.001014  -0.000048   0.000019  -0.000268   0.000443
    19  H    0.000000   0.000020   0.000000   0.000000   0.000227   0.000008
    20  H    0.000002  -0.000055  -0.000006   0.000000  -0.000363   0.000006
    21  O    0.000006  -0.000016   0.000002   0.000000  -0.000018  -0.000029
    22  C   -0.000001   0.000006   0.000000   0.000000  -0.000019  -0.000007
    23  H    0.000000   0.000000   0.000000   0.000000  -0.000001   0.000000
    24  H    0.000000   0.000000   0.000000   0.000000   0.000003   0.000000
    25  C    0.000001  -0.000011   0.000000   0.000000   0.000037   0.000000
    26  H    0.000000   0.000000   0.000000   0.000000   0.000000   0.000000
    27  H    0.000000   0.000000   0.000000   0.000000  -0.000001   0.000000
    28  O   -0.000001  -0.000001   0.000000   0.000000   0.000001   0.000000
    29  C   -0.000001  -0.000001   0.000000   0.000000   0.000002   0.000000
    30  H    0.000000   0.000000   0.000000   0.000000   0.000000   0.000000
    31  H    0.000000   0.000000   0.000000   0.000000   0.000000   0.000000
    32  C    0.000001   0.000001   0.000000   0.000000   0.000000   0.000000
    33  H    0.000000   0.000000   0.000000   0.000000   0.000000   0.000000
    34  H    0.000000   0.000000   0.000000   0.000000   0.000000   0.000000
    35  O    0.000004   0.000001   0.000000   0.000000   0.000000   0.000000
    36  C   -0.000039  -0.000002   0.000000   0.000000  -0.000002   0.000000
    37  H    0.000002   0.000000   0.000000   0.000000   0.000000   0.000000
[...]
    20  H    0.006375  -0.000125   0.001744  -0.000023  -0.000012   0.000000
    21  O   -0.050704   0.002975  -0.005622  -0.001107   0.000788  -0.000024
    22  C    0.167497  -0.022839  -0.038678  -0.050643  -0.003806   0.006389
    23  H   -0.038629  -0.004708   0.002996  -0.005599   0.002570   0.001733
    24  H   -0.022888   0.006653  -0.004711   0.002977   0.000996  -0.000126
    25  C    5.276461   0.285646   0.375002   0.290994  -0.058803   0.001848
    26  H    0.285646   0.660578  -0.045476  -0.043818  -0.003305  -0.001759
    27  H    0.375002  -0.045476   0.543005  -0.044293   0.006400  -0.000282
    28  O    0.290994  -0.043818  -0.044293   8.011745   0.264469  -0.049639
    29  C   -0.058803  -0.003305   0.006400   0.264469   5.191832   0.342981
    30  H    0.001848  -0.001759  -0.000282  -0.049639   0.342981   0.604461
    31  H   -0.015999   0.013727  -0.000023  -0.047948   0.286758  -0.056671
    32  C    0.001122   0.001759  -0.000612  -0.043876   0.255586  -0.037120
    33  H    0.000069   0.000020   0.000000   0.002824  -0.017900  -0.003308
    34  H    0.000097  -0.000018  -0.000025   0.001008  -0.029872   0.005224
    35  O    0.000718   0.000000   0.000007  -0.001349  -0.044922   0.000389
    36  C   -0.000042   0.000005  -0.000001   0.000466  -0.001248  -0.000102
    37  H   -0.000004   0.000000   0.000000  -0.000017   0.000719   0.000016
    38  H    0.000003   0.000000   0.000000  -0.000001   0.000667  -0.000036
    39  C    0.000005   0.000000   0.000000   0.000028  -0.001187   0.000003
    40  H    0.000000   0.000000   0.000000   0.000000   0.000022   0.000000
    41  H    0.000000   0.000000   0.000000   0.000002   0.000000   0.000001
    42  O    0.000000   0.000000   0.000000   0.000009   0.000027   0.000002
             31         32         33         34         35         36
     1  C    0.000000  -0.000017   0.000003  -0.000002   0.000502  -0.001081
     2  H    0.000000   0.000000   0.000000   0.000000  -0.000005   0.000684
     3  H    0.000000   0.000003   0.000000   0.000000  -0.000003   0.000748
     4  C    0.000000  -0.000002   0.000000   0.000000   0.000009  -0.001129
     5  H    0.000000   0.000000   0.000000   0.000000   0.000000   0.000024
     6  H    0.000000   0.000000   0.000000   0.000000   0.000002   0.000015
     7  O    0.000000   0.000001   0.000000   0.000000   0.000007  -0.000002
     8  C    0.000000   0.000000   0.000000   0.000000   0.000002  -0.000002
     9  H    0.000000   0.000000   0.000000   0.000000   0.000000   0.000000
    10  H    0.000000   0.000000   0.000000   0.000000   0.000000   0.000000
    11  C    0.000000   0.000000   0.000000   0.000000   0.000000   0.000001
    12  H    0.000000   0.000000   0.000000   0.000000   0.000000   0.000000
    13  H    0.000000   0.000000   0.000000   0.000000   0.000000   0.000000
    14  O    0.000000   0.000000   0.000000   0.000000   0.000000   0.000000
    15  C    0.000000  -0.000001   0.000000   0.000000   0.000000   0.000000
    16  H    0.000000   0.000000   0.000000   0.000000   0.000000   0.000000
    17  H    0.000000   0.000000   0.000000   0.000000   0.000000   0.000000
    18  C    0.000011   0.000017   0.000000   0.000000   0.000003   0.000000
    19  H    0.000000   0.000000   0.000000   0.000000   0.000000   0.000000
    20  H    0.000000  -0.000001   0.000000   0.000000   0.000000   0.000000
    21  O    0.000014   0.000093   0.000000   0.000001   0.000017   0.000001
    22  C   -0.000221   0.000052   0.000041   0.000049  -0.000294   0.000035
    23  H   -0.000227  -0.000023   0.000003  -0.000001   0.000026  -0.000001
    24  H    0.000032   0.000005   0.000000   0.000000   0.000000   0.000000
    25  C   -0.015999   0.001122   0.000069   0.000097   0.000718  -0.000042
    26  H    0.013727   0.001759   0.000020  -0.000018   0.000000   0.000005
    27  H   -0.000023  -0.000612   0.000000  -0.000025   0.000007  -0.000001
    28  O   -0.047948  -0.043876   0.002824   0.001008  -0.001349   0.000466
    29  C    0.286758   0.255586  -0.017900  -0.029872  -0.044922  -0.001248
    30  H   -0.056671  -0.037120  -0.003308   0.005224   0.000389  -0.000102
    31  H    0.669186   0.000441   0.004118  -0.003038   0.002617   0.000260
    32  C    0.000441   5.144622   0.289217   0.339070   0.278588  -0.032354
    33  H    0.004118   0.289217   0.676204  -0.054542  -0.049975  -0.004901
    34  H   -0.003038   0.339070  -0.054542   0.606091  -0.051680  -0.005358
    35  O    0.002617   0.278588  -0.049975  -0.051680   8.020477   0.277799
    36  C    0.000260  -0.032354  -0.004901  -0.005358   0.277799   5.160749
    37  H    0.000013  -0.005443  -0.002298   0.010465  -0.051850   0.342100
    38  H    0.000008  -0.005964   0.010306  -0.002343  -0.049695   0.284629
    39  C    0.000026  -0.000864   0.000685   0.000776  -0.043621   0.253732
    40  H    0.000000   0.000193   0.000006   0.000015   0.002588  -0.011353
    41  H    0.000000   0.000086  -0.000036   0.000014   0.000099  -0.030908
    42  O    0.000000   0.000432  -0.000001  -0.000015  -0.001314  -0.044502
             37         38         39         40         41         42
     1  C    0.000113   0.000221  -0.031309  -0.006003  -0.004571   0.277343
     2  H    0.000015   0.000014  -0.002622  -0.002372   0.008194  -0.051500
     3  H   -0.000052   0.000003  -0.008343   0.011389  -0.001900  -0.049065
     4  C   -0.000015   0.000025  -0.000751   0.000849   0.000557  -0.045869
     5  H    0.000000   0.000000   0.000185   0.000008   0.000011   0.002679
     6  H    0.000003   0.000000   0.000017  -0.000039   0.000013   0.000280
     7  O    0.000002   0.000000   0.000415  -0.000001  -0.000003  -0.001596
     8  C    0.000000   0.000000   0.000008   0.000003  -0.000002   0.000415
     9  H    0.000000   0.000000  -0.000002   0.000000   0.000000  -0.000003
    10  H    0.000000   0.000000   0.000003   0.000000   0.000000  -0.000001
    11  C    0.000000   0.000000  -0.000002   0.000000   0.000000  -0.000002
    12  H    0.000000   0.000000   0.000000   0.000000   0.000000   0.000002
    13  H    0.000000   0.000000   0.000000   0.000000   0.000000   0.000000
    14  O    0.000000   0.000000   0.000002   0.000000   0.000000   0.000007
    15  C    0.000000   0.000000   0.000000   0.000000   0.000000   0.000001
    16  H    0.000000   0.000000   0.000000   0.000000   0.000000   0.000000
    17  H    0.000000   0.000000   0.000000   0.000000   0.000000   0.000000
    18  C    0.000000   0.000000   0.000000   0.000000   0.000000   0.000000
    19  H    0.000000   0.000000   0.000000   0.000000   0.000000   0.000000
    20  H    0.000000   0.000000   0.000000   0.000000   0.000000   0.000000
    21  O    0.000000   0.000000   0.000001   0.000000   0.000000   0.000000
    22  C    0.000000   0.000000  -0.000005   0.000000   0.000000   0.000001
    23  H    0.000000   0.000000   0.000000   0.000000   0.000000   0.000000
    24  H    0.000000   0.000000   0.000000   0.000000   0.000000   0.000000
    25  C   -0.000004   0.000003   0.000005   0.000000   0.000000   0.000000
    26  H    0.000000   0.000000   0.000000   0.000000   0.000000   0.000000
    27  H    0.000000   0.000000   0.000000   0.000000   0.000000   0.000000
    28  O   -0.000017  -0.000001   0.000028   0.000000   0.000002   0.000009
    29  C    0.000719   0.000667  -0.001187   0.000022   0.000000   0.000027
    30  H    0.000016  -0.000036   0.000003   0.000000   0.000001   0.000002
    31  H    0.000013   0.000008   0.000026   0.000000   0.000000   0.000000
    32  C   -0.005443  -0.005964  -0.000864   0.000193   0.000086   0.000432
    33  H   -0.002298   0.010306   0.000685   0.000006  -0.000036  -0.000001
    34  H    0.010465  -0.002343   0.000776   0.000015   0.000014  -0.000015
    35  O   -0.051850  -0.049695  -0.043621   0.002588   0.000099  -0.001314
    36  C    0.342100   0.284629   0.253732  -0.011353  -0.030908  -0.044502
    37  H    0.607065  -0.055154  -0.030735  -0.003470   0.005165   0.000363
    38  H   -0.055154   0.676251  -0.011819   0.003967  -0.002992   0.002724
    39  C   -0.030735  -0.011819   5.159260   0.284027   0.344998   0.277082
    40  H   -0.003470   0.003967   0.284027   0.676769  -0.054778  -0.048842
    41  H    0.005165  -0.002992   0.344998  -0.054778   0.599389  -0.051481
    42  O    0.000363   0.002724   0.277082  -0.048842  -0.051481   8.021433
 Mulliken atomic charges:
              1
     1  C   -0.189450
     2  H    0.183810
     3  H    0.149639
     4  C   -0.189447
     5  H    0.149620
     6  H    0.183858
     7  O   -0.288635
     8  C   -0.189969
     9  H    0.188060
    10  H    0.147057
    11  C   -0.188264
    12  H    0.183095
    13  H    0.149134
    14  O   -0.289159
    15  C   -0.185043
    16  H    0.149552
    17  H    0.183928
    18  C   -0.192841
    19  H    0.146807
    20  H    0.186154
    21  O   -0.286974
    22  C   -0.214653
    23  H    0.208197
    24  H    0.149587
    25  C   -0.214646
    26  H    0.149658
    27  H    0.208180
    28  O   -0.287118
    29  C   -0.192959
    30  H    0.186032
    31  H    0.146915
    32  C   -0.185012
    33  H    0.149467
    34  H    0.184081
    35  O   -0.289140
    36  C   -0.188263
    37  H    0.182998
    38  H    0.149187
    39  C   -0.189995
    40  H    0.147023
    41  H    0.188138
    42  O   -0.288609
    43  K    0.000000
 Sum of Mulliken atomic charges =   0.00000
 Mulliken charges with hydrogens summed into heavy atoms:
              1
     1  C    0.143999
     4  C    0.144032
     7  O   -0.288635
     8  C    0.145148
    11  C    0.143965
    14  O   -0.289159
    15  C    0.148437
    18  C    0.140119
    21  O   -0.286974
    22  C    0.143131
    25  C    0.143193
    28  O   -0.287118
    29  C    0.139988
    32  C    0.148536
    35  O   -0.289140
    36  C    0.143922
    39  C    0.145166
    42  O   -0.288609
    43  K    0.000000
 Sum of Mulliken charges with hydrogens summed into heavy atoms =   0.00000
          Condensed to fragments (all electrons):
     1       0.000000
     2       0.000000
 Electronic spatial extent (au):  <R**2>=           6508.4507
 Charge=              0.0000 electrons
 Dipole moment (field-independent basis, Debye):
    X=              0.3564    Y=              0.0010    Z=              0.0014  Tot=              0.3564
 Quadrupole moment (field-independent basis, Debye-Ang):
   XX=            -75.4504   YY=            -78.1366   ZZ=           -108.7590
   XY=             -0.0168   XZ=              0.0202   YZ=              1.7635
 Traceless Quadrupole moment (field-independent basis, Debye-Ang):
   XX=             11.9982   YY=              9.3121   ZZ=            -21.3103
   XY=             -0.0168   XZ=              0.0202   YZ=              1.7635
 Octapole moment (field-independent basis, Debye-Ang**2):
  XXX=              2.2509  YYY=              0.0638  ZZZ=             -0.0019  XYY=             -2.8180
  XXY=             -0.0477  XXZ=             -0.0352  XZZ=             -5.7042  YZZ=              0.0558
  YYZ=              0.0346  XYZ=             -5.0165
 Hexadecapole moment (field-independent basis, Debye-Ang**3):
 XXXX=          -3663.2805 YYYY=          -3561.7948 ZZZZ=           -299.3543 XXXY=             -0.1436
 XXXZ=              0.7477 YYYX=              0.1884 YYYZ=            -20.2363 ZZZX=              0.0276
 ZZZY=              1.7778 XXYY=          -1211.5202 XXZZ=           -734.3518 YYZZ=           -716.9030
 XXYZ=             32.5943 YYXZ=             -0.6184 ZZXY=             -0.0256
 N-N= 1.445868668333D+03 E-N=-5.053314660534D+03  KE= 9.179065328208D+02
 Counterpoise: doing MCBS calculation for fragment   2
 Basis read from rwf:  (6D, 10F)
 Pseudo-potential data read from rwf file.
 There are    17 symmetry adapted basis functions of A   symmetry.
 Integral buffers will be    131072 words long.
 Raffenetti 2 integral format.
 Two-electron integral symmetry is turned on.
    17 basis functions,    25 primitive gaussians,    17 cartesian basis functions
     4 alpha electrons        4 beta electrons
       nuclear repulsion energy         0.0000000000 Hartrees.
 NAtoms=   43 NActive=    1 NUniq=    1 SFac= 7.50D-01 NAtFMM=   80 NAOKFM=F Big=F
 One-electron integrals computed using PRISM.
   1 Symmetry operations used in ECPInt.
 ECPInt:  NShTT=      45 NPrTT=      97 LenC2=      46 LenP2D=      97.
 LDataN:  DoStor=T MaxTD1= 5 Len=  102
 NBasis=    17 RedAO= T  NBF=    17
 NBsUse=    17 1.00D-06 NBFU=    17
 Harris functional with IExCor=  402 diagonalized for initial guess.
 ExpMin= 1.65D-02 ExpMax= 2.16D+01 ExpMxC= 2.16D+01 IAcc=3 IRadAn=         0 AccDes= 0.00D+00
 HarFok:  IExCor=  402 AccDes= 0.00D+00 IRadAn=         0 IDoV= 1
 ScaDFX=  1.000000  1.000000  1.000000  1.000000
 FoFCou: FMM=F IPFlag=           0 FMFlag=      100000 FMFlg1=           0
         NFxFlg=           0 DoJE=T BraDBF=F KetDBF=T FulRan=T
         Omega=  0.000000  0.000000  1.000000  0.000000  0.000000 ICntrl=     500 IOpCl=  0
         NMat0=    1 NMatS0=    1 NMatT0=    0 NMatD0=    1 NMtDS0=    0 NMtDT0=    0
         I1Cent=           4 NGrid=           0.
 Petite list used in FoFCou.
 Initial guess orbital symmetries:
       Occupied  (A) (A) (A) (A)
       Virtual   (A) (A) (A) (A) (A) (A) (A) (A) (A) (A) (A) (A)
                 (A)
 The electronic state of the initial guess is 1-A.
 Requested convergence on RMS density matrix=1.00D-08 within 128 cycles.
 Requested convergence on MAX density matrix=1.00D-06.
 Requested convergence on             energy=1.00D-06.
 No special actions if energy rises.
 Keep R1 ints in memory in canonical form, NReq=905499.
 SCF Done:  E(RB3LYP) =  -28.1499548899     A.U. after    6 cycles
             Convg  =    0.1004D-09             -V/T =  3.6730

 **********************************************************************

            Population analysis using the SCF density.

 **********************************************************************

 Orbital symmetries:
       Occupied  (A) (A) (A) (A)
       Virtual   (A) (A) (A) (A) (A) (A) (A) (A) (A) (A) (A) (A)
                 (A)
 The electronic state is 1-A.
 Alpha  occ. eigenvalues --   -1.62725  -0.96835  -0.96835  -0.96835
 Alpha virt. eigenvalues --   -0.21788  -0.12830  -0.12830  -0.12830  -0.07006
 Alpha virt. eigenvalues --    0.06834   0.06834   0.06834   0.62378   1.20435
 Alpha virt. eigenvalues --    1.20435   1.20435  19.95091
          Condensed to atoms (all electrons):
              1
     1  K    8.000000
 Mulliken atomic charges:
              1
     1  C    0.000000
     2  H    0.000000
     3  H    0.000000
     4  C    0.000000
     5  H    0.000000
     6  H    0.000000
     7  O    0.000000
     8  C    0.000000
     9  H    0.000000
    10  H    0.000000
    11  C    0.000000
    12  H    0.000000
    13  H    0.000000
    14  O    0.000000
    15  C    0.000000
    16  H    0.000000
    17  H    0.000000
    18  C    0.000000
    19  H    0.000000
    20  H    0.000000
    21  O    0.000000
    22  C    0.000000
    23  H    0.000000
    24  H    0.000000
    25  C    0.000000
    26  H    0.000000
    27  H    0.000000
    28  O    0.000000
    29  C    0.000000
    30  H    0.000000
    31  H    0.000000
    32  C    0.000000
    33  H    0.000000
    34  H    0.000000
    35  O    0.000000
    36  C    0.000000
    37  H    0.000000
    38  H    0.000000
    39  C    0.000000
    40  H    0.000000
    41  H    0.000000
    42  O    0.000000
    43  K    1.000000
 Sum of Mulliken atomic charges =   1.00000
 Mulliken charges with hydrogens summed into heavy atoms:
              1
     1  C    0.000000
     4  C    0.000000
     7  O    0.000000
     8  C    0.000000
    11  C    0.000000
    14  O    0.000000
    15  C    0.000000
    18  C    0.000000
    21  O    0.000000
    22  C    0.000000
    25  C    0.000000
    28  O    0.000000
    29  C    0.000000
    32  C    0.000000
    35  O    0.000000
    36  C    0.000000
    39  C    0.000000
    42  O    0.000000
    43  K    1.000000
 Sum of Mulliken charges with hydrogens summed into heavy atoms =   1.00000
          Condensed to fragments (all electrons):
     1       0.000000
     2       1.000000
 Electronic spatial extent (au):  <R**2>=             18.2839
 Charge=              1.0000 electrons
 Dipole moment (field-independent basis, Debye):
    X=             -0.2662    Y=              0.0018    Z=             -0.0012  Tot=              0.2662
 Quadrupole moment (field-independent basis, Debye-Ang):
   XX=             -8.1434   YY=             -8.1582   ZZ=             -8.1582
   XY=             -0.0001   XZ=              0.0001   YZ=              0.0000
 Traceless Quadrupole moment (field-independent basis, Debye-Ang):
   XX=              0.0098   YY=             -0.0049   ZZ=             -0.0049
   XY=             -0.0001   XZ=              0.0001   YZ=              0.0000
 Octapole moment (field-independent basis, Debye-Ang**2):
  XXX=              1.3555  YYY=             -0.0092  ZZZ=              0.0059  XYY=              0.4521
  XXY=             -0.0031  XXZ=              0.0020  XZZ=              0.4521  YZZ=             -0.0031
  YYZ=              0.0020  XYZ=              0.0000
 Hexadecapole moment (field-independent basis, Debye-Ang**3):
 XXXX=             -5.8100 YYYY=             -5.6597 ZZZZ=             -5.6597 XXXY=              0.0005
 XXXZ=             -0.0003 YYYX=              0.0005 YYYZ=              0.0000 ZZZX=             -0.0003
 ZZZY=              0.0000 XXYY=             -1.9116 XXZZ=             -1.9116 YYZZ=             -1.8866
 XXYZ=              0.0000 YYXZ=             -0.0001 ZZXY=              0.0002
 N-N= 0.000000000000D+00 E-N=-5.535664645528D+01  KE= 1.053134114543D+01
 Counterpoise: corrected energy =    -951.125200070277
 Counterpoise: BSSE energy =       0.008093976521
 1\1\GINC-NODE19\SP\RB3LYP\SDD\C12H24K1O6(1+)\CHP09BWH\01-Apr-2010\0\\#
  b3lyp/sdd geom=connectivity counterpoise=2\\Crown Ether [18]crown-6 w
 ith K+ guest Counterpoise\\1,1\C,0,-3.614152,0.67684,0.385795\H,0,-3.5
 69408,0.479808,1.468251\H,0,-4.531824,1.242275,0.161647\C,0,-3.622172,
 -0.632401,-0.38591\H,0,-4.547237,-1.186024,-0.162683\H,0,-3.573853,-0.
 435905,-1.468312\O,0,-2.458416,-1.413726,0.03487\C,0,-2.35315,-2.72638
 2,-0.603277\H,0,-2.170406,-2.6059,-1.682563\H,0,-3.286952,-3.291948,-0
 .460367\C,0,-1.207358,-3.480819,0.049701\H,0,-1.359907,-3.528849,1.138
 937\H,0,-1.165925,-4.504816,-0.353017\O,0,0.043932,-2.779355,-0.243608
 \C,0,1.219909,-3.421232,0.34685\H,0,1.335968,-4.436748,-0.062759\H,0,1
 .102865,-3.483971,1.439522\C,0,2.446779,-2.592461,0.00481\H,0,3.349519
 ,-3.124186,0.341913\H,0,2.5063,-2.43861,-1.083224\O,0,2.337691,-1.3100
 2,0.705724\C,0,3.524743,-0.453548,0.636726\H,0,3.481613,0.170436,1.535
 625\H,0,4.440761,-1.062979,0.682437\C,0,3.532506,0.410741,-0.631668\H,
 0,4.45592,1.009176,-0.673563\H,0,3.485787,-0.212634,-1.530805\O,0,2.35
 5981,1.281252,-0.705355\C,0,2.479198,2.563994,-0.007286\H,0,2.537543,2
 .411947,1.081067\H,0,3.387529,3.085083,-0.345956\C,0,1.261353,3.405378
 ,-0.350684\H,0,1.388978,4.420608,0.056201\H,0,1.144334,3.466628,-1.443
 444\O,0,0.078619,2.778206,0.242051\C,0,-1.164373,3.495119,-0.049106\H,
 0,-1.317848,3.545744,-1.138092\H,0,-1.109855,4.518255,0.354236\C,0,-2.
 318425,2.754205,0.60481\H,0,-3.245488,3.331069,0.463268\H,0,-2.135987,
 2.63087,1.683823\O,0,-2.440138,1.443255,-0.033948\K,0,-0.055418,0.0003
 77,-0.000241\\Version=AM64L-G09RevA.02\State=1-A\HF=-28.1499549\RMSD=1
 .004e-10\Dipole=0.0749383,0.0008839,0.0003155\Quadrupole=13.363935,10.
 7514674,-24.1154024,-0.016129,0.0161003,1.3865292\PG=C01 [X(C12H24K1O6
 )]\\@


 Change starts when someone sees the next step.
                            -- William Drayton
 Job cpu time:  0 days  0 hours 23 minutes 26.1 seconds.
 File lengths (MBytes):  RWF=     40 Int=      0 D2E=      0 Chk=     14 Scr=      1
 Normal termination of Gaussian 09 at Thu Apr  1 01:49:05 2010.
